+ 0.5 0 2 tcp 40 ------- 0 0.0 3.0 0 0
- 0.5 0 2 tcp 40 ------- 0 0.0 3.0 0 0
r 0.51032 0 2 tcp 40 ------- 0 0.0 3.0 0 0
+ 0.51032 2 3 tcp 40 ------- 0 0.0 3.0 0 0
- 0.51032 2 3 tcp 40 ------- 0 0.0 3.0 0 0
r 0.520676 2 3 tcp 40 ------- 0 0.0 3.0 0 0
+ 0.520676 3 2 ack 40 ------- 0 3.0 0.0 0 1
- 0.520676 3 2 ack 40 ------- 0 3.0 0.0 0 1
r 0.531031 3 2 ack 40 ------- 0 3.0 0.0 0 1
+ 0.531031 2 0 ack 40 ------- 0 3.0 0.0 0 1
- 0.531031 2 0 ack 40 ------- 0 3.0 0.0 0 1
r 0.541351 2 0 ack 40 ------- 0 3.0 0.0 0 1
+ 0.541351 0 2 tcp 1040 ------- 0 0.0 3.0 1 2
- 0.541351 0 2 tcp 1040 ------- 0 0.0 3.0 1 2
+ 0.541351 0 2 tcp 1040 ------- 0 0.0 3.0 2 3
- 0.549671 0 2 tcp 1040 ------- 0 0.0 3.0 2 3
r 0.559671 0 2 tcp 1040 ------- 0 0.0 3.0 1 2
+ 0.559671 2 3 tcp 1040 ------- 0 0.0 3.0 1 2
- 0.559671 2 3 tcp 1040 ------- 0 0.0 3.0 1 2
r 0.567991 0 2 tcp 1040 ------- 0 0.0 3.0 2 3
+ 0.567991 2 3 tcp 1040 ------- 0 0.0 3.0 2 3
- 0.568916 2 3 tcp 1040 ------- 0 0.0 3.0 2 3
r 0.578916 2 3 tcp 1040 ------- 0 0.0 3.0 1 2
+ 0.578916 3 2 ack 40 ------- 0 3.0 0.0 1 4
- 0.578916 3 2 ack 40 ------- 0 3.0 0.0 1 4
r 0.58816 2 3 tcp 1040 ------- 0 0.0 3.0 2 3
+ 0.58816 3 2 ack 40 ------- 0 3.0 0.0 2 5
- 0.58816 3 2 ack 40 ------- 0 3.0 0.0 2 5
r 0.589271 3 2 ack 40 ------- 0 3.0 0.0 1 4
+ 0.589271 2 0 ack 40 ------- 0 3.0 0.0 1 4
- 0.589271 2 0 ack 40 ------- 0 3.0 0.0 1 4
r 0.598516 3 2 ack 40 ------- 0 3.0 0.0 2 5
+ 0.598516 2 0 ack 40 ------- 0 3.0 0.0 2 5
- 0.598516 2 0 ack 40 ------- 0 3.0 0.0 2 5
r 0.599591 2 0 ack 40 ------- 0 3.0 0.0 1 4
+ 0.599591 0 2 tcp 1040 ------- 0 0.0 3.0 3 6
- 0.599591 0 2 tcp 1040 ------- 0 0.0 3.0 3 6
+ 0.599591 0 2 tcp 1040 ------- 0 0.0 3.0 4 7
- 0.607911 0 2 tcp 1040 ------- 0 0.0 3.0 4 7
r 0.608836 2 0 ack 40 ------- 0 3.0 0.0 2 5
+ 0.608836 0 2 tcp 1040 ------- 0 0.0 3.0 5 8
+ 0.608836 0 2 tcp 1040 ------- 0 0.0 3.0 6 9
- 0.616231 0 2 tcp 1040 ------- 0 0.0 3.0 5 8
r 0.617911 0 2 tcp 1040 ------- 0 0.0 3.0 3 6
+ 0.617911 2 3 tcp 1040 ------- 0 0.0 3.0 3 6
- 0.617911 2 3 tcp 1040 ------- 0 0.0 3.0 3 6
- 0.624551 0 2 tcp 1040 ------- 0 0.0 3.0 6 9
r 0.626231 0 2 tcp 1040 ------- 0 0.0 3.0 4 7
+ 0.626231 2 3 tcp 1040 ------- 0 0.0 3.0 4 7
- 0.627156 2 3 tcp 1040 ------- 0 0.0 3.0 4 7
r 0.634551 0 2 tcp 1040 ------- 0 0.0 3.0 5 8
+ 0.634551 2 3 tcp 1040 ------- 0 0.0 3.0 5 8
- 0.6364 2 3 tcp 1040 ------- 0 0.0 3.0 5 8
r 0.637156 2 3 tcp 1040 ------- 0 0.0 3.0 3 6
+ 0.637156 3 2 ack 40 ------- 0 3.0 0.0 3 10
- 0.637156 3 2 ack 40 ------- 0 3.0 0.0 3 10
r 0.642871 0 2 tcp 1040 ------- 0 0.0 3.0 6 9
+ 0.642871 2 3 tcp 1040 ------- 0 0.0 3.0 6 9
- 0.645644 2 3 tcp 1040 ------- 0 0.0 3.0 6 9
r 0.6464 2 3 tcp 1040 ------- 0 0.0 3.0 4 7
+ 0.6464 3 2 ack 40 ------- 0 3.0 0.0 4 11
- 0.6464 3 2 ack 40 ------- 0 3.0 0.0 4 11
r 0.647511 3 2 ack 40 ------- 0 3.0 0.0 3 10
+ 0.647511 2 0 ack 40 ------- 0 3.0 0.0 3 10
- 0.647511 2 0 ack 40 ------- 0 3.0 0.0 3 10
r 0.655644 2 3 tcp 1040 ------- 0 0.0 3.0 5 8
+ 0.655644 3 2 ack 40 ------- 0 3.0 0.0 5 12
- 0.655644 3 2 ack 40 ------- 0 3.0 0.0 5 12
r 0.656756 3 2 ack 40 ------- 0 3.0 0.0 4 11
+ 0.656756 2 0 ack 40 ------- 0 3.0 0.0 4 11
- 0.656756 2 0 ack 40 ------- 0 3.0 0.0 4 11
r 0.657831 2 0 ack 40 ------- 0 3.0 0.0 3 10
+ 0.657831 0 2 tcp 1040 ------- 0 0.0 3.0 7 13
- 0.657831 0 2 tcp 1040 ------- 0 0.0 3.0 7 13
+ 0.657831 0 2 tcp 1040 ------- 0 0.0 3.0 8 14
r 0.664889 2 3 tcp 1040 ------- 0 0.0 3.0 6 9
+ 0.664889 3 2 ack 40 ------- 0 3.0 0.0 6 15
- 0.664889 3 2 ack 40 ------- 0 3.0 0.0 6 15
r 0.666 3 2 ack 40 ------- 0 3.0 0.0 5 12
+ 0.666 2 0 ack 40 ------- 0 3.0 0.0 5 12
- 0.666 2 0 ack 40 ------- 0 3.0 0.0 5 12
- 0.666151 0 2 tcp 1040 ------- 0 0.0 3.0 8 14
r 0.667076 2 0 ack 40 ------- 0 3.0 0.0 4 11
+ 0.667076 0 2 tcp 1040 ------- 0 0.0 3.0 9 16
+ 0.667076 0 2 tcp 1040 ------- 0 0.0 3.0 10 17
- 0.674471 0 2 tcp 1040 ------- 0 0.0 3.0 9 16
r 0.675244 3 2 ack 40 ------- 0 3.0 0.0 6 15
+ 0.675244 2 0 ack 40 ------- 0 3.0 0.0 6 15
- 0.675244 2 0 ack 40 ------- 0 3.0 0.0 6 15
r 0.676151 0 2 tcp 1040 ------- 0 0.0 3.0 7 13
+ 0.676151 2 3 tcp 1040 ------- 0 0.0 3.0 7 13
- 0.676151 2 3 tcp 1040 ------- 0 0.0 3.0 7 13
r 0.67632 2 0 ack 40 ------- 0 3.0 0.0 5 12
+ 0.67632 0 2 tcp 1040 ------- 0 0.0 3.0 11 18
+ 0.67632 0 2 tcp 1040 ------- 0 0.0 3.0 12 19
- 0.682791 0 2 tcp 1040 ------- 0 0.0 3.0 10 17
r 0.684471 0 2 tcp 1040 ------- 0 0.0 3.0 8 14
+ 0.684471 2 3 tcp 1040 ------- 0 0.0 3.0 8 14
- 0.685396 2 3 tcp 1040 ------- 0 0.0 3.0 8 14
r 0.685564 2 0 ack 40 ------- 0 3.0 0.0 6 15
+ 0.685564 0 2 tcp 1040 ------- 0 0.0 3.0 13 20
+ 0.685564 0 2 tcp 1040 ------- 0 0.0 3.0 14 21
- 0.691111 0 2 tcp 1040 ------- 0 0.0 3.0 11 18
r 0.692791 0 2 tcp 1040 ------- 0 0.0 3.0 9 16
+ 0.692791 2 3 tcp 1040 ------- 0 0.0 3.0 9 16
- 0.69464 2 3 tcp 1040 ------- 0 0.0 3.0 9 16
r 0.695396 2 3 tcp 1040 ------- 0 0.0 3.0 7 13
+ 0.695396 3 2 ack 40 ------- 0 3.0 0.0 7 22
- 0.695396 3 2 ack 40 ------- 0 3.0 0.0 7 22
- 0.699431 0 2 tcp 1040 ------- 0 0.0 3.0 12 19
r 0.701111 0 2 tcp 1040 ------- 0 0.0 3.0 10 17
+ 0.701111 2 3 tcp 1040 ------- 0 0.0 3.0 10 17
- 0.703884 2 3 tcp 1040 ------- 0 0.0 3.0 10 17
r 0.70464 2 3 tcp 1040 ------- 0 0.0 3.0 8 14
+ 0.70464 3 2 ack 40 ------- 0 3.0 0.0 8 23
- 0.70464 3 2 ack 40 ------- 0 3.0 0.0 8 23
r 0.705751 3 2 ack 40 ------- 0 3.0 0.0 7 22
+ 0.705751 2 0 ack 40 ------- 0 3.0 0.0 7 22
- 0.705751 2 0 ack 40 ------- 0 3.0 0.0 7 22
- 0.707751 0 2 tcp 1040 ------- 0 0.0 3.0 13 20
r 0.709431 0 2 tcp 1040 ------- 0 0.0 3.0 11 18
+ 0.709431 2 3 tcp 1040 ------- 0 0.0 3.0 11 18
- 0.713129 2 3 tcp 1040 ------- 0 0.0 3.0 11 18
r 0.713884 2 3 tcp 1040 ------- 0 0.0 3.0 9 16
+ 0.713884 3 2 ack 40 ------- 0 3.0 0.0 9 24
- 0.713884 3 2 ack 40 ------- 0 3.0 0.0 9 24
r 0.714996 3 2 ack 40 ------- 0 3.0 0.0 8 23
+ 0.714996 2 0 ack 40 ------- 0 3.0 0.0 8 23
- 0.714996 2 0 ack 40 ------- 0 3.0 0.0 8 23
r 0.716071 2 0 ack 40 ------- 0 3.0 0.0 7 22
+ 0.716071 0 2 tcp 1040 ------- 0 0.0 3.0 15 25
+ 0.716071 0 2 tcp 1040 ------- 0 0.0 3.0 16 26
- 0.716071 0 2 tcp 1040 ------- 0 0.0 3.0 14 21
r 0.717751 0 2 tcp 1040 ------- 0 0.0 3.0 12 19
+ 0.717751 2 3 tcp 1040 ------- 0 0.0 3.0 12 19
- 0.722373 2 3 tcp 1040 ------- 0 0.0 3.0 12 19
r 0.723129 2 3 tcp 1040 ------- 0 0.0 3.0 10 17
+ 0.723129 3 2 ack 40 ------- 0 3.0 0.0 10 27
- 0.723129 3 2 ack 40 ------- 0 3.0 0.0 10 27
r 0.72424 3 2 ack 40 ------- 0 3.0 0.0 9 24
+ 0.72424 2 0 ack 40 ------- 0 3.0 0.0 9 24
- 0.72424 2 0 ack 40 ------- 0 3.0 0.0 9 24
- 0.724391 0 2 tcp 1040 ------- 0 0.0 3.0 15 25
r 0.725316 2 0 ack 40 ------- 0 3.0 0.0 8 23
+ 0.725316 0 2 tcp 1040 ------- 0 0.0 3.0 17 28
+ 0.725316 0 2 tcp 1040 ------- 0 0.0 3.0 18 29
r 0.726071 0 2 tcp 1040 ------- 0 0.0 3.0 13 20
+ 0.726071 2 3 tcp 1040 ------- 0 0.0 3.0 13 20
- 0.731618 2 3 tcp 1040 ------- 0 0.0 3.0 13 20
r 0.732373 2 3 tcp 1040 ------- 0 0.0 3.0 11 18
+ 0.732373 3 2 ack 40 ------- 0 3.0 0.0 11 30
- 0.732373 3 2 ack 40 ------- 0 3.0 0.0 11 30
- 0.732711 0 2 tcp 1040 ------- 0 0.0 3.0 16 26
r 0.733484 3 2 ack 40 ------- 0 3.0 0.0 10 27
+ 0.733484 2 0 ack 40 ------- 0 3.0 0.0 10 27
- 0.733484 2 0 ack 40 ------- 0 3.0 0.0 10 27
r 0.734391 0 2 tcp 1040 ------- 0 0.0 3.0 14 21
+ 0.734391 2 3 tcp 1040 ------- 0 0.0 3.0 14 21
r 0.73456 2 0 ack 40 ------- 0 3.0 0.0 9 24
+ 0.73456 0 2 tcp 1040 ------- 0 0.0 3.0 19 31
+ 0.73456 0 2 tcp 1040 ------- 0 0.0 3.0 20 32
- 0.740862 2 3 tcp 1040 ------- 0 0.0 3.0 14 21
- 0.741031 0 2 tcp 1040 ------- 0 0.0 3.0 17 28
r 0.741618 2 3 tcp 1040 ------- 0 0.0 3.0 12 19
+ 0.741618 3 2 ack 40 ------- 0 3.0 0.0 12 33
- 0.741618 3 2 ack 40 ------- 0 3.0 0.0 12 33
r 0.742711 0 2 tcp 1040 ------- 0 0.0 3.0 15 25
+ 0.742711 2 3 tcp 1040 ------- 0 0.0 3.0 15 25
r 0.742729 3 2 ack 40 ------- 0 3.0 0.0 11 30
+ 0.742729 2 0 ack 40 ------- 0 3.0 0.0 11 30
- 0.742729 2 0 ack 40 ------- 0 3.0 0.0 11 30
r 0.743804 2 0 ack 40 ------- 0 3.0 0.0 10 27
+ 0.743804 0 2 tcp 1040 ------- 0 0.0 3.0 21 34
+ 0.743804 0 2 tcp 1040 ------- 0 0.0 3.0 22 35
- 0.749351 0 2 tcp 1040 ------- 0 0.0 3.0 18 29
- 0.750107 2 3 tcp 1040 ------- 0 0.0 3.0 15 25
r 0.750862 2 3 tcp 1040 ------- 0 0.0 3.0 13 20
+ 0.750862 3 2 ack 40 ------- 0 3.0 0.0 13 36
- 0.750862 3 2 ack 40 ------- 0 3.0 0.0 13 36
r 0.751031 0 2 tcp 1040 ------- 0 0.0 3.0 16 26
+ 0.751031 2 3 tcp 1040 ------- 0 0.0 3.0 16 26
r 0.751973 3 2 ack 40 ------- 0 3.0 0.0 12 33
+ 0.751973 2 0 ack 40 ------- 0 3.0 0.0 12 33
- 0.751973 2 0 ack 40 ------- 0 3.0 0.0 12 33
r 0.753049 2 0 ack 40 ------- 0 3.0 0.0 11 30
+ 0.753049 0 2 tcp 1040 ------- 0 0.0 3.0 23 37
+ 0.753049 0 2 tcp 1040 ------- 0 0.0 3.0 24 38
- 0.757671 0 2 tcp 1040 ------- 0 0.0 3.0 19 31
- 0.759351 2 3 tcp 1040 ------- 0 0.0 3.0 16 26
r 0.759351 0 2 tcp 1040 ------- 0 0.0 3.0 17 28
+ 0.759351 2 3 tcp 1040 ------- 0 0.0 3.0 17 28
r 0.760107 2 3 tcp 1040 ------- 0 0.0 3.0 14 21
+ 0.760107 3 2 ack 40 ------- 0 3.0 0.0 14 39
- 0.760107 3 2 ack 40 ------- 0 3.0 0.0 14 39
r 0.761218 3 2 ack 40 ------- 0 3.0 0.0 13 36
+ 0.761218 2 0 ack 40 ------- 0 3.0 0.0 13 36
- 0.761218 2 0 ack 40 ------- 0 3.0 0.0 13 36
r 0.762293 2 0 ack 40 ------- 0 3.0 0.0 12 33
+ 0.762293 0 2 tcp 1040 ------- 0 0.0 3.0 25 40
+ 0.762293 0 2 tcp 1040 ------- 0 0.0 3.0 26 41
- 0.765991 0 2 tcp 1040 ------- 0 0.0 3.0 20 32
r 0.767671 0 2 tcp 1040 ------- 0 0.0 3.0 18 29
+ 0.767671 2 3 tcp 1040 ------- 0 0.0 3.0 18 29
- 0.768596 2 3 tcp 1040 ------- 0 0.0 3.0 17 28
r 0.769351 2 3 tcp 1040 ------- 0 0.0 3.0 15 25
+ 0.769351 3 2 ack 40 ------- 0 3.0 0.0 15 42
- 0.769351 3 2 ack 40 ------- 0 3.0 0.0 15 42
r 0.770462 3 2 ack 40 ------- 0 3.0 0.0 14 39
+ 0.770462 2 0 ack 40 ------- 0 3.0 0.0 14 39
- 0.770462 2 0 ack 40 ------- 0 3.0 0.0 14 39
r 0.771538 2 0 ack 40 ------- 0 3.0 0.0 13 36
+ 0.771538 0 2 tcp 1040 ------- 0 0.0 3.0 27 43
+ 0.771538 0 2 tcp 1040 ------- 0 0.0 3.0 28 44
- 0.774311 0 2 tcp 1040 ------- 0 0.0 3.0 21 34
r 0.775991 0 2 tcp 1040 ------- 0 0.0 3.0 19 31
+ 0.775991 2 3 tcp 1040 ------- 0 0.0 3.0 19 31
- 0.77784 2 3 tcp 1040 ------- 0 0.0 3.0 18 29
r 0.778596 2 3 tcp 1040 ------- 0 0.0 3.0 16 26
+ 0.778596 3 2 ack 40 ------- 0 3.0 0.0 16 45
- 0.778596 3 2 ack 40 ------- 0 3.0 0.0 16 45
r 0.779707 3 2 ack 40 ------- 0 3.0 0.0 15 42
+ 0.779707 2 0 ack 40 ------- 0 3.0 0.0 15 42
- 0.779707 2 0 ack 40 ------- 0 3.0 0.0 15 42
r 0.780782 2 0 ack 40 ------- 0 3.0 0.0 14 39
+ 0.780782 0 2 tcp 1040 ------- 0 0.0 3.0 29 46
+ 0.780782 0 2 tcp 1040 ------- 0 0.0 3.0 30 47
- 0.782631 0 2 tcp 1040 ------- 0 0.0 3.0 22 35
r 0.784311 0 2 tcp 1040 ------- 0 0.0 3.0 20 32
+ 0.784311 2 3 tcp 1040 ------- 0 0.0 3.0 20 32
- 0.787084 2 3 tcp 1040 ------- 0 0.0 3.0 19 31
r 0.78784 2 3 tcp 1040 ------- 0 0.0 3.0 17 28
+ 0.78784 3 2 ack 40 ------- 0 3.0 0.0 17 48
- 0.78784 3 2 ack 40 ------- 0 3.0 0.0 17 48
r 0.788951 3 2 ack 40 ------- 0 3.0 0.0 16 45
+ 0.788951 2 0 ack 40 ------- 0 3.0 0.0 16 45
- 0.788951 2 0 ack 40 ------- 0 3.0 0.0 16 45
r 0.790027 2 0 ack 40 ------- 0 3.0 0.0 15 42
+ 0.790027 0 2 tcp 1040 ------- 0 0.0 3.0 31 49
+ 0.790027 0 2 tcp 1040 ------- 0 0.0 3.0 32 50
d 0.790027 0 2 tcp 1040 ------- 0 0.0 3.0 32 50
- 0.790951 0 2 tcp 1040 ------- 0 0.0 3.0 23 37
r 0.792631 0 2 tcp 1040 ------- 0 0.0 3.0 21 34
+ 0.792631 2 3 tcp 1040 ------- 0 0.0 3.0 21 34
- 0.796329 2 3 tcp 1040 ------- 0 0.0 3.0 20 32
r 0.797084 2 3 tcp 1040 ------- 0 0.0 3.0 18 29
+ 0.797084 3 2 ack 40 ------- 0 3.0 0.0 18 51
- 0.797084 3 2 ack 40 ------- 0 3.0 0.0 18 51
r 0.798196 3 2 ack 40 ------- 0 3.0 0.0 17 48
+ 0.798196 2 0 ack 40 ------- 0 3.0 0.0 17 48
- 0.798196 2 0 ack 40 ------- 0 3.0 0.0 17 48
r 0.799271 2 0 ack 40 ------- 0 3.0 0.0 16 45
+ 0.799271 0 2 tcp 1040 ------- 0 0.0 3.0 33 52
+ 0.799271 0 2 tcp 1040 ------- 0 0.0 3.0 34 53
d 0.799271 0 2 tcp 1040 ------- 0 0.0 3.0 34 53
- 0.799271 0 2 tcp 1040 ------- 0 0.0 3.0 24 38
r 0.800951 0 2 tcp 1040 ------- 0 0.0 3.0 22 35
+ 0.800951 2 3 tcp 1040 ------- 0 0.0 3.0 22 35
- 0.805573 2 3 tcp 1040 ------- 0 0.0 3.0 21 34
r 0.806329 2 3 tcp 1040 ------- 0 0.0 3.0 19 31
+ 0.806329 3 2 ack 40 ------- 0 3.0 0.0 19 54
- 0.806329 3 2 ack 40 ------- 0 3.0 0.0 19 54
r 0.80744 3 2 ack 40 ------- 0 3.0 0.0 18 51
+ 0.80744 2 0 ack 40 ------- 0 3.0 0.0 18 51
- 0.80744 2 0 ack 40 ------- 0 3.0 0.0 18 51
- 0.807591 0 2 tcp 1040 ------- 0 0.0 3.0 25 40
r 0.808516 2 0 ack 40 ------- 0 3.0 0.0 17 48
+ 0.808516 0 2 tcp 1040 ------- 0 0.0 3.0 35 55
+ 0.808516 0 2 tcp 1040 ------- 0 0.0 3.0 36 56
r 0.809271 0 2 tcp 1040 ------- 0 0.0 3.0 23 37
+ 0.809271 2 3 tcp 1040 ------- 0 0.0 3.0 23 37
- 0.814818 2 3 tcp 1040 ------- 0 0.0 3.0 22 35
r 0.815573 2 3 tcp 1040 ------- 0 0.0 3.0 20 32
+ 0.815573 3 2 ack 40 ------- 0 3.0 0.0 20 57
- 0.815573 3 2 ack 40 ------- 0 3.0 0.0 20 57
- 0.815911 0 2 tcp 1040 ------- 0 0.0 3.0 26 41
r 0.816684 3 2 ack 40 ------- 0 3.0 0.0 19 54
+ 0.816684 2 0 ack 40 ------- 0 3.0 0.0 19 54
- 0.816684 2 0 ack 40 ------- 0 3.0 0.0 19 54
r 0.817591 0 2 tcp 1040 ------- 0 0.0 3.0 24 38
+ 0.817591 2 3 tcp 1040 ------- 0 0.0 3.0 24 38
r 0.81776 2 0 ack 40 ------- 0 3.0 0.0 18 51
+ 0.81776 0 2 tcp 1040 ------- 0 0.0 3.0 37 58
+ 0.81776 0 2 tcp 1040 ------- 0 0.0 3.0 38 59
d 0.81776 0 2 tcp 1040 ------- 0 0.0 3.0 38 59
- 0.824062 2 3 tcp 1040 ------- 0 0.0 3.0 23 37
- 0.824231 0 2 tcp 1040 ------- 0 0.0 3.0 27 43
r 0.824818 2 3 tcp 1040 ------- 0 0.0 3.0 21 34
+ 0.824818 3 2 ack 40 ------- 0 3.0 0.0 21 60
- 0.824818 3 2 ack 40 ------- 0 3.0 0.0 21 60
r 0.825911 0 2 tcp 1040 ------- 0 0.0 3.0 25 40
+ 0.825911 2 3 tcp 1040 ------- 0 0.0 3.0 25 40
r 0.825929 3 2 ack 40 ------- 0 3.0 0.0 20 57
+ 0.825929 2 0 ack 40 ------- 0 3.0 0.0 20 57
- 0.825929 2 0 ack 40 ------- 0 3.0 0.0 20 57
r 0.827004 2 0 ack 40 ------- 0 3.0 0.0 19 54
+ 0.827004 0 2 tcp 1040 ------- 0 0.0 3.0 39 61
- 0.832551 0 2 tcp 1040 ------- 0 0.0 3.0 28 44
- 0.833307 2 3 tcp 1040 ------- 0 0.0 3.0 24 38
r 0.834062 2 3 tcp 1040 ------- 0 0.0 3.0 22 35
+ 0.834062 3 2 ack 40 ------- 0 3.0 0.0 22 62
- 0.834062 3 2 ack 40 ------- 0 3.0 0.0 22 62
r 0.834231 0 2 tcp 1040 ------- 0 0.0 3.0 26 41
+ 0.834231 2 3 tcp 1040 ------- 0 0.0 3.0 26 41
r 0.835173 3 2 ack 40 ------- 0 3.0 0.0 21 60
+ 0.835173 2 0 ack 40 ------- 0 3.0 0.0 21 60
- 0.835173 2 0 ack 40 ------- 0 3.0 0.0 21 60
r 0.836249 2 0 ack 40 ------- 0 3.0 0.0 20 57
+ 0.836249 0 2 tcp 1040 ------- 0 0.0 3.0 40 63
- 0.840871 0 2 tcp 1040 ------- 0 0.0 3.0 29 46
- 0.842551 2 3 tcp 1040 ------- 0 0.0 3.0 25 40
r 0.842551 0 2 tcp 1040 ------- 0 0.0 3.0 27 43
+ 0.842551 2 3 tcp 1040 ------- 0 0.0 3.0 27 43
r 0.843307 2 3 tcp 1040 ------- 0 0.0 3.0 23 37
+ 0.843307 3 2 ack 40 ------- 0 3.0 0.0 23 64
- 0.843307 3 2 ack 40 ------- 0 3.0 0.0 23 64
r 0.844418 3 2 ack 40 ------- 0 3.0 0.0 22 62
+ 0.844418 2 0 ack 40 ------- 0 3.0 0.0 22 62
- 0.844418 2 0 ack 40 ------- 0 3.0 0.0 22 62
r 0.845493 2 0 ack 40 ------- 0 3.0 0.0 21 60
+ 0.845493 0 2 tcp 1040 ------- 0 0.0 3.0 41 65
- 0.849191 0 2 tcp 1040 ------- 0 0.0 3.0 30 47
r 0.850871 0 2 tcp 1040 ------- 0 0.0 3.0 28 44
+ 0.850871 2 3 tcp 1040 ------- 0 0.0 3.0 28 44
- 0.851796 2 3 tcp 1040 ------- 0 0.0 3.0 26 41
r 0.852551 2 3 tcp 1040 ------- 0 0.0 3.0 24 38
+ 0.852551 3 2 ack 40 ------- 0 3.0 0.0 24 66
- 0.852551 3 2 ack 40 ------- 0 3.0 0.0 24 66
r 0.853662 3 2 ack 40 ------- 0 3.0 0.0 23 64
+ 0.853662 2 0 ack 40 ------- 0 3.0 0.0 23 64
- 0.853662 2 0 ack 40 ------- 0 3.0 0.0 23 64
r 0.854738 2 0 ack 40 ------- 0 3.0 0.0 22 62
+ 0.854738 0 2 tcp 1040 ------- 0 0.0 3.0 42 67
- 0.857511 0 2 tcp 1040 ------- 0 0.0 3.0 31 49
r 0.859191 0 2 tcp 1040 ------- 0 0.0 3.0 29 46
+ 0.859191 2 3 tcp 1040 ------- 0 0.0 3.0 29 46
- 0.86104 2 3 tcp 1040 ------- 0 0.0 3.0 27 43
r 0.861796 2 3 tcp 1040 ------- 0 0.0 3.0 25 40
+ 0.861796 3 2 ack 40 ------- 0 3.0 0.0 25 68
- 0.861796 3 2 ack 40 ------- 0 3.0 0.0 25 68
r 0.862907 3 2 ack 40 ------- 0 3.0 0.0 24 66
+ 0.862907 2 0 ack 40 ------- 0 3.0 0.0 24 66
- 0.862907 2 0 ack 40 ------- 0 3.0 0.0 24 66
r 0.863982 2 0 ack 40 ------- 0 3.0 0.0 23 64
+ 0.863982 0 2 tcp 1040 ------- 0 0.0 3.0 43 69
- 0.865831 0 2 tcp 1040 ------- 0 0.0 3.0 33 52
r 0.867511 0 2 tcp 1040 ------- 0 0.0 3.0 30 47
+ 0.867511 2 3 tcp 1040 ------- 0 0.0 3.0 30 47
- 0.870284 2 3 tcp 1040 ------- 0 0.0 3.0 28 44
r 0.87104 2 3 tcp 1040 ------- 0 0.0 3.0 26 41
+ 0.87104 3 2 ack 40 ------- 0 3.0 0.0 26 70
- 0.87104 3 2 ack 40 ------- 0 3.0 0.0 26 70
r 0.872151 3 2 ack 40 ------- 0 3.0 0.0 25 68
+ 0.872151 2 0 ack 40 ------- 0 3.0 0.0 25 68
- 0.872151 2 0 ack 40 ------- 0 3.0 0.0 25 68
r 0.873227 2 0 ack 40 ------- 0 3.0 0.0 24 66
+ 0.873227 0 2 tcp 1040 ------- 0 0.0 3.0 44 71
- 0.874151 0 2 tcp 1040 ------- 0 0.0 3.0 35 55
r 0.875831 0 2 tcp 1040 ------- 0 0.0 3.0 31 49
+ 0.875831 2 3 tcp 1040 ------- 0 0.0 3.0 31 49
- 0.879529 2 3 tcp 1040 ------- 0 0.0 3.0 29 46
r 0.880284 2 3 tcp 1040 ------- 0 0.0 3.0 27 43
+ 0.880284 3 2 ack 40 ------- 0 3.0 0.0 27 72
- 0.880284 3 2 ack 40 ------- 0 3.0 0.0 27 72
r 0.881396 3 2 ack 40 ------- 0 3.0 0.0 26 70
+ 0.881396 2 0 ack 40 ------- 0 3.0 0.0 26 70
- 0.881396 2 0 ack 40 ------- 0 3.0 0.0 26 70
r 0.882471 2 0 ack 40 ------- 0 3.0 0.0 25 68
+ 0.882471 0 2 tcp 1040 ------- 0 0.0 3.0 45 73
- 0.882471 0 2 tcp 1040 ------- 0 0.0 3.0 36 56
r 0.884151 0 2 tcp 1040 ------- 0 0.0 3.0 33 52
+ 0.884151 2 3 tcp 1040 ------- 0 0.0 3.0 33 52
- 0.888773 2 3 tcp 1040 ------- 0 0.0 3.0 30 47
r 0.889529 2 3 tcp 1040 ------- 0 0.0 3.0 28 44
+ 0.889529 3 2 ack 40 ------- 0 3.0 0.0 28 74
- 0.889529 3 2 ack 40 ------- 0 3.0 0.0 28 74
r 0.89064 3 2 ack 40 ------- 0 3.0 0.0 27 72
+ 0.89064 2 0 ack 40 ------- 0 3.0 0.0 27 72
- 0.89064 2 0 ack 40 ------- 0 3.0 0.0 27 72
- 0.890791 0 2 tcp 1040 ------- 0 0.0 3.0 37 58
r 0.891716 2 0 ack 40 ------- 0 3.0 0.0 26 70
+ 0.891716 0 2 tcp 1040 ------- 0 0.0 3.0 46 75
r 0.892471 0 2 tcp 1040 ------- 0 0.0 3.0 35 55
+ 0.892471 2 3 tcp 1040 ------- 0 0.0 3.0 35 55
- 0.898018 2 3 tcp 1040 ------- 0 0.0 3.0 31 49
r 0.898773 2 3 tcp 1040 ------- 0 0.0 3.0 29 46
+ 0.898773 3 2 ack 40 ------- 0 3.0 0.0 29 76
- 0.898773 3 2 ack 40 ------- 0 3.0 0.0 29 76
- 0.899111 0 2 tcp 1040 ------- 0 0.0 3.0 39 61
r 0.899884 3 2 ack 40 ------- 0 3.0 0.0 28 74
+ 0.899884 2 0 ack 40 ------- 0 3.0 0.0 28 74
- 0.899884 2 0 ack 40 ------- 0 3.0 0.0 28 74
r 0.900791 0 2 tcp 1040 ------- 0 0.0 3.0 36 56
+ 0.900791 2 3 tcp 1040 ------- 0 0.0 3.0 36 56
r 0.90096 2 0 ack 40 ------- 0 3.0 0.0 27 72
+ 0.90096 0 2 tcp 1040 ------- 0 0.0 3.0 47 77
- 0.907262 2 3 tcp 1040 ------- 0 0.0 3.0 33 52
- 0.907431 0 2 tcp 1040 ------- 0 0.0 3.0 40 63
r 0.908018 2 3 tcp 1040 ------- 0 0.0 3.0 30 47
+ 0.908018 3 2 ack 40 ------- 0 3.0 0.0 30 78
- 0.908018 3 2 ack 40 ------- 0 3.0 0.0 30 78
r 0.909111 0 2 tcp 1040 ------- 0 0.0 3.0 37 58
+ 0.909111 2 3 tcp 1040 ------- 0 0.0 3.0 37 58
r 0.909129 3 2 ack 40 ------- 0 3.0 0.0 29 76
+ 0.909129 2 0 ack 40 ------- 0 3.0 0.0 29 76
- 0.909129 2 0 ack 40 ------- 0 3.0 0.0 29 76
r 0.910204 2 0 ack 40 ------- 0 3.0 0.0 28 74
+ 0.910204 0 2 tcp 1040 ------- 0 0.0 3.0 48 79
- 0.915751 0 2 tcp 1040 ------- 0 0.0 3.0 41 65
- 0.916507 2 3 tcp 1040 ------- 0 0.0 3.0 35 55
r 0.917262 2 3 tcp 1040 ------- 0 0.0 3.0 31 49
+ 0.917262 3 2 ack 40 ------- 0 3.0 0.0 31 80
- 0.917262 3 2 ack 40 ------- 0 3.0 0.0 31 80
r 0.917431 0 2 tcp 1040 ------- 0 0.0 3.0 39 61
+ 0.917431 2 3 tcp 1040 ------- 0 0.0 3.0 39 61
r 0.918373 3 2 ack 40 ------- 0 3.0 0.0 30 78
+ 0.918373 2 0 ack 40 ------- 0 3.0 0.0 30 78
- 0.918373 2 0 ack 40 ------- 0 3.0 0.0 30 78
r 0.919449 2 0 ack 40 ------- 0 3.0 0.0 29 76
+ 0.919449 0 2 tcp 1040 ------- 0 0.0 3.0 49 81
- 0.924071 0 2 tcp 1040 ------- 0 0.0 3.0 42 67
- 0.925751 2 3 tcp 1040 ------- 0 0.0 3.0 36 56
r 0.925751 0 2 tcp 1040 ------- 0 0.0 3.0 40 63
+ 0.925751 2 3 tcp 1040 ------- 0 0.0 3.0 40 63
r 0.926507 2 3 tcp 1040 ------- 0 0.0 3.0 33 52
+ 0.926507 3 2 ack 40 ------- 0 3.0 0.0 31 82
- 0.926507 3 2 ack 40 ------- 0 3.0 0.0 31 82
r 0.927618 3 2 ack 40 ------- 0 3.0 0.0 31 80
+ 0.927618 2 0 ack 40 ------- 0 3.0 0.0 31 80
- 0.927618 2 0 ack 40 ------- 0 3.0 0.0 31 80
r 0.928693 2 0 ack 40 ------- 0 3.0 0.0 30 78
+ 0.928693 0 2 tcp 1040 ------- 0 0.0 3.0 50 83
- 0.932391 0 2 tcp 1040 ------- 0 0.0 3.0 43 69
r 0.934071 0 2 tcp 1040 ------- 0 0.0 3.0 41 65
+ 0.934071 2 3 tcp 1040 ------- 0 0.0 3.0 41 65
- 0.934996 2 3 tcp 1040 ------- 0 0.0 3.0 37 58
r 0.935751 2 3 tcp 1040 ------- 0 0.0 3.0 35 55
+ 0.935751 3 2 ack 40 ------- 0 3.0 0.0 31 84
- 0.935751 3 2 ack 40 ------- 0 3.0 0.0 31 84
r 0.936862 3 2 ack 40 ------- 0 3.0 0.0 31 82
+ 0.936862 2 0 ack 40 ------- 0 3.0 0.0 31 82
- 0.936862 2 0 ack 40 ------- 0 3.0 0.0 31 82
r 0.937938 2 0 ack 40 ------- 0 3.0 0.0 31 80
+ 0.937938 0 2 tcp 1040 ------- 0 0.0 3.0 51 85
- 0.940711 0 2 tcp 1040 ------- 0 0.0 3.0 44 71
r 0.942391 0 2 tcp 1040 ------- 0 0.0 3.0 42 67
+ 0.942391 2 3 tcp 1040 ------- 0 0.0 3.0 42 67
- 0.94424 2 3 tcp 1040 ------- 0 0.0 3.0 39 61
r 0.944996 2 3 tcp 1040 ------- 0 0.0 3.0 36 56
+ 0.944996 3 2 ack 40 ------- 0 3.0 0.0 31 86
- 0.944996 3 2 ack 40 ------- 0 3.0 0.0 31 86
r 0.946107 3 2 ack 40 ------- 0 3.0 0.0 31 84
+ 0.946107 2 0 ack 40 ------- 0 3.0 0.0 31 84
- 0.946107 2 0 ack 40 ------- 0 3.0 0.0 31 84
r 0.947182 2 0 ack 40 ------- 0 3.0 0.0 31 82
- 0.949031 0 2 tcp 1040 ------- 0 0.0 3.0 45 73
r 0.950711 0 2 tcp 1040 ------- 0 0.0 3.0 43 69
+ 0.950711 2 3 tcp 1040 ------- 0 0.0 3.0 43 69
- 0.953484 2 3 tcp 1040 ------- 0 0.0 3.0 40 63
r 0.95424 2 3 tcp 1040 ------- 0 0.0 3.0 37 58
+ 0.95424 3 2 ack 40 ------- 0 3.0 0.0 31 87
- 0.95424 3 2 ack 40 ------- 0 3.0 0.0 31 87
r 0.955351 3 2 ack 40 ------- 0 3.0 0.0 31 86
+ 0.955351 2 0 ack 40 ------- 0 3.0 0.0 31 86
- 0.955351 2 0 ack 40 ------- 0 3.0 0.0 31 86
r 0.956427 2 0 ack 40 ------- 0 3.0 0.0 31 84
- 0.957351 0 2 tcp 1040 ------- 0 0.0 3.0 46 75
r 0.959031 0 2 tcp 1040 ------- 0 0.0 3.0 44 71
+ 0.959031 2 3 tcp 1040 ------- 0 0.0 3.0 44 71
- 0.962729 2 3 tcp 1040 ------- 0 0.0 3.0 41 65
r 0.963484 2 3 tcp 1040 ------- 0 0.0 3.0 39 61
+ 0.963484 3 2 ack 40 ------- 0 3.0 0.0 31 88
- 0.963484 3 2 ack 40 ------- 0 3.0 0.0 31 88
r 0.964596 3 2 ack 40 ------- 0 3.0 0.0 31 87
+ 0.964596 2 0 ack 40 ------- 0 3.0 0.0 31 87
- 0.964596 2 0 ack 40 ------- 0 3.0 0.0 31 87
r 0.965671 2 0 ack 40 ------- 0 3.0 0.0 31 86
+ 0.965671 0 2 tcp 1040 ---A--- 0 0.0 3.0 32 89
- 0.965671 0 2 tcp 1040 ------- 0 0.0 3.0 47 77
r 0.967351 0 2 tcp 1040 ------- 0 0.0 3.0 45 73
+ 0.967351 2 3 tcp 1040 ------- 0 0.0 3.0 45 73
- 0.971973 2 3 tcp 1040 ------- 0 0.0 3.0 42 67
r 0.972729 2 3 tcp 1040 ------- 0 0.0 3.0 40 63
+ 0.972729 3 2 ack 40 ------- 0 3.0 0.0 31 90
- 0.972729 3 2 ack 40 ------- 0 3.0 0.0 31 90
r 0.97384 3 2 ack 40 ------- 0 3.0 0.0 31 88
+ 0.97384 2 0 ack 40 ------- 0 3.0 0.0 31 88
- 0.97384 2 0 ack 40 ------- 0 3.0 0.0 31 88
- 0.973991 0 2 tcp 1040 ------- 0 0.0 3.0 48 79
r 0.974916 2 0 ack 40 ------- 0 3.0 0.0 31 87
r 0.975671 0 2 tcp 1040 ------- 0 0.0 3.0 46 75
+ 0.975671 2 3 tcp 1040 ------- 0 0.0 3.0 46 75
- 0.981218 2 3 tcp 1040 ------- 0 0.0 3.0 43 69
r 0.981973 2 3 tcp 1040 ------- 0 0.0 3.0 41 65
+ 0.981973 3 2 ack 40 ------- 0 3.0 0.0 31 91
- 0.981973 3 2 ack 40 ------- 0 3.0 0.0 31 91
- 0.982311 0 2 tcp 1040 ------- 0 0.0 3.0 49 81
r 0.983084 3 2 ack 40 ------- 0 3.0 0.0 31 90
+ 0.983084 2 0 ack 40 ------- 0 3.0 0.0 31 90
- 0.983084 2 0 ack 40 ------- 0 3.0 0.0 31 90
r 0.983991 0 2 tcp 1040 ------- 0 0.0 3.0 47 77
+ 0.983991 2 3 tcp 1040 ------- 0 0.0 3.0 47 77
r 0.98416 2 0 ack 40 ------- 0 3.0 0.0 31 88
- 0.990462 2 3 tcp 1040 ------- 0 0.0 3.0 44 71
- 0.990631 0 2 tcp 1040 ------- 0 0.0 3.0 50 83
r 0.991218 2 3 tcp 1040 ------- 0 0.0 3.0 42 67
+ 0.991218 3 2 ack 40 ------- 0 3.0 0.0 31 92
- 0.991218 3 2 ack 40 ------- 0 3.0 0.0 31 92
r 0.992311 0 2 tcp 1040 ------- 0 0.0 3.0 48 79
+ 0.992311 2 3 tcp 1040 ------- 0 0.0 3.0 48 79
r 0.992329 3 2 ack 40 ------- 0 3.0 0.0 31 91
+ 0.992329 2 0 ack 40 ------- 0 3.0 0.0 31 91
- 0.992329 2 0 ack 40 ------- 0 3.0 0.0 31 91
r 0.993404 2 0 ack 40 ------- 0 3.0 0.0 31 90
- 0.998951 0 2 tcp 1040 ------- 0 0.0 3.0 51 85
- 0.999707 2 3 tcp 1040 ------- 0 0.0 3.0 45 73
+ 1 1 2 cbr 500 ------- 0 1.0 3.1 0 93
- 1 1 2 cbr 500 ------- 0 1.0 3.1 0 93
r 1.000462 2 3 tcp 1040 ------- 0 0.0 3.0 43 69
+ 1.000462 3 2 ack 40 ------- 0 3.0 0.0 31 94
- 1.000462 3 2 ack 40 ------- 0 3.0 0.0 31 94
r 1.000631 0 2 tcp 1040 ------- 0 0.0 3.0 49 81
+ 1.000631 2 3 tcp 1040 ------- 0 0.0 3.0 49 81
+ 1.001 1 2 cbr 500 ------- 0 1.0 3.1 1 95
r 1.001573 3 2 ack 40 ------- 0 3.0 0.0 31 92
+ 1.001573 2 0 ack 40 ------- 0 3.0 0.0 31 92
- 1.001573 2 0 ack 40 ------- 0 3.0 0.0 31 92
+ 1.002 1 2 cbr 500 ------- 0 1.0 3.1 2 96
r 1.002649 2 0 ack 40 ------- 0 3.0 0.0 31 91
+ 1.003 1 2 cbr 500 ------- 0 1.0 3.1 3 97
+ 1.004 1 2 cbr 500 ------- 0 1.0 3.1 4 98
- 1.004 1 2 cbr 500 ------- 0 1.0 3.1 1 95
+ 1.005 1 2 cbr 500 ------- 0 1.0 3.1 5 99
+ 1.006 1 2 cbr 500 ------- 0 1.0 3.1 6 100
+ 1.007 1 2 cbr 500 ------- 0 1.0 3.1 7 101
- 1.007271 0 2 tcp 1040 ---A--- 0 0.0 3.0 32 89
+ 1.008 1 2 cbr 500 ------- 0 1.0 3.1 8 102
- 1.008 1 2 cbr 500 ------- 0 1.0 3.1 2 96
- 1.008951 2 3 tcp 1040 ------- 0 0.0 3.0 46 75
r 1.008951 0 2 tcp 1040 ------- 0 0.0 3.0 50 83
+ 1.008951 2 3 tcp 1040 ------- 0 0.0 3.0 50 83
+ 1.009 1 2 cbr 500 ------- 0 1.0 3.1 9 103
r 1.009707 2 3 tcp 1040 ------- 0 0.0 3.0 44 71
+ 1.009707 3 2 ack 40 ------- 0 3.0 0.0 31 104
- 1.009707 3 2 ack 40 ------- 0 3.0 0.0 31 104
+ 1.01 1 2 cbr 500 ------- 0 1.0 3.1 10 105
r 1.010818 3 2 ack 40 ------- 0 3.0 0.0 31 94
+ 1.010818 2 0 ack 40 ------- 0 3.0 0.0 31 94
- 1.010818 2 0 ack 40 ------- 0 3.0 0.0 31 94
+ 1.011 1 2 cbr 500 ------- 0 1.0 3.1 11 106
r 1.011893 2 0 ack 40 ------- 0 3.0 0.0 31 92
+ 1.012 1 2 cbr 500 ------- 0 1.0 3.1 12 107
- 1.012 1 2 cbr 500 ------- 0 1.0 3.1 3 97
+ 1.013 1 2 cbr 500 ------- 0 1.0 3.1 13 108
+ 1.014 1 2 cbr 500 ------- 0 1.0 3.1 14 109
r 1.014 1 2 cbr 500 ------- 0 1.0 3.1 0 93
+ 1.014 2 3 cbr 500 ------- 0 1.0 3.1 0 93
+ 1.015 1 2 cbr 500 ------- 0 1.0 3.1 15 110
+ 1.016 1 2 cbr 500 ------- 0 1.0 3.1 16 111
- 1.016 1 2 cbr 500 ------- 0 1.0 3.1 4 98
+ 1.017 1 2 cbr 500 ------- 0 1.0 3.1 17 112
r 1.017271 0 2 tcp 1040 ------- 0 0.0 3.0 51 85
+ 1.017271 2 3 tcp 1040 ------- 0 0.0 3.0 51 85
+ 1.018 1 2 cbr 500 ------- 0 1.0 3.1 18 113
r 1.018 1 2 cbr 500 ------- 0 1.0 3.1 1 95
+ 1.018 2 3 cbr 500 ------- 0 1.0 3.1 1 95
- 1.018196 2 3 tcp 1040 ------- 0 0.0 3.0 47 77
r 1.018951 2 3 tcp 1040 ------- 0 0.0 3.0 45 73
+ 1.018951 3 2 ack 40 ------- 0 3.0 0.0 31 114
- 1.018951 3 2 ack 40 ------- 0 3.0 0.0 31 114
+ 1.019 1 2 cbr 500 ------- 0 1.0 3.1 19 115
+ 1.02 1 2 cbr 500 ------- 0 1.0 3.1 20 116
- 1.02 1 2 cbr 500 ------- 0 1.0 3.1 5 99
r 1.020062 3 2 ack 40 ------- 0 3.0 0.0 31 104
+ 1.020062 2 0 ack 40 ------- 0 3.0 0.0 31 104
- 1.020062 2 0 ack 40 ------- 0 3.0 0.0 31 104
+ 1.021 1 2 cbr 500 ------- 0 1.0 3.1 21 117
r 1.021138 2 0 ack 40 ------- 0 3.0 0.0 31 94
+ 1.022 1 2 cbr 500 ------- 0 1.0 3.1 22 118
r 1.022 1 2 cbr 500 ------- 0 1.0 3.1 2 96
+ 1.022 2 3 cbr 500 ------- 0 1.0 3.1 2 96
+ 1.023 1 2 cbr 500 ------- 0 1.0 3.1 23 119
+ 1.024 1 2 cbr 500 ------- 0 1.0 3.1 24 120
- 1.024 1 2 cbr 500 ------- 0 1.0 3.1 6 100
+ 1.025 1 2 cbr 500 ------- 0 1.0 3.1 25 121
r 1.025591 0 2 tcp 1040 ---A--- 0 0.0 3.0 32 89
+ 1.025591 2 3 tcp 1040 ---A--- 0 0.0 3.0 32 89
+ 1.026 1 2 cbr 500 ------- 0 1.0 3.1 26 122
r 1.026 1 2 cbr 500 ------- 0 1.0 3.1 3 97
+ 1.026 2 3 cbr 500 ------- 0 1.0 3.1 3 97
+ 1.027 1 2 cbr 500 ------- 0 1.0 3.1 27 123
- 1.02744 2 3 tcp 1040 ------- 0 0.0 3.0 48 79
+ 1.028 1 2 cbr 500 ------- 0 1.0 3.1 28 124
- 1.028 1 2 cbr 500 ------- 0 1.0 3.1 7 101
r 1.028196 2 3 tcp 1040 ------- 0 0.0 3.0 46 75
+ 1.028196 3 2 ack 40 ------- 0 3.0 0.0 31 125
- 1.028196 3 2 ack 40 ------- 0 3.0 0.0 31 125
+ 1.029 1 2 cbr 500 ------- 0 1.0 3.1 29 126
r 1.029307 3 2 ack 40 ------- 0 3.0 0.0 31 114
+ 1.029307 2 0 ack 40 ------- 0 3.0 0.0 31 114
- 1.029307 2 0 ack 40 ------- 0 3.0 0.0 31 114
+ 1.03 1 2 cbr 500 ------- 0 1.0 3.1 30 127
r 1.03 1 2 cbr 500 ------- 0 1.0 3.1 4 98
+ 1.03 2 3 cbr 500 ------- 0 1.0 3.1 4 98
r 1.030382 2 0 ack 40 ------- 0 3.0 0.0 31 104
+ 1.031 1 2 cbr 500 ------- 0 1.0 3.1 31 128
+ 1.032 1 2 cbr 500 ------- 0 1.0 3.1 32 129
- 1.032 1 2 cbr 500 ------- 0 1.0 3.1 8 102
+ 1.033 1 2 cbr 500 ------- 0 1.0 3.1 33 130
+ 1.034 1 2 cbr 500 ------- 0 1.0 3.1 34 131
r 1.034 1 2 cbr 500 ------- 0 1.0 3.1 5 99
+ 1.034 2 3 cbr 500 ------- 0 1.0 3.1 5 99
+ 1.035 1 2 cbr 500 ------- 0 1.0 3.1 35 132
+ 1.036 1 2 cbr 500 ------- 0 1.0 3.1 36 133
- 1.036 1 2 cbr 500 ------- 0 1.0 3.1 9 103
- 1.036684 2 3 tcp 1040 ------- 0 0.0 3.0 49 81
+ 1.037 1 2 cbr 500 ------- 0 1.0 3.1 37 134
r 1.03744 2 3 tcp 1040 ------- 0 0.0 3.0 47 77
+ 1.03744 3 2 ack 40 ------- 0 3.0 0.0 31 135
- 1.03744 3 2 ack 40 ------- 0 3.0 0.0 31 135
+ 1.038 1 2 cbr 500 ------- 0 1.0 3.1 38 136
r 1.038 1 2 cbr 500 ------- 0 1.0 3.1 6 100
+ 1.038 2 3 cbr 500 ------- 0 1.0 3.1 6 100
r 1.038551 3 2 ack 40 ------- 0 3.0 0.0 31 125
+ 1.038551 2 0 ack 40 ------- 0 3.0 0.0 31 125
- 1.038551 2 0 ack 40 ------- 0 3.0 0.0 31 125
+ 1.039 1 2 cbr 500 ------- 0 1.0 3.1 39 137
r 1.039627 2 0 ack 40 ------- 0 3.0 0.0 31 114
+ 1.04 1 2 cbr 500 ------- 0 1.0 3.1 40 138
- 1.04 1 2 cbr 500 ------- 0 1.0 3.1 10 105
+ 1.041 1 2 cbr 500 ------- 0 1.0 3.1 41 139
+ 1.042 1 2 cbr 500 ------- 0 1.0 3.1 42 140
r 1.042 1 2 cbr 500 ------- 0 1.0 3.1 7 101
+ 1.042 2 3 cbr 500 ------- 0 1.0 3.1 7 101
+ 1.043 1 2 cbr 500 ------- 0 1.0 3.1 43 141
+ 1.044 1 2 cbr 500 ------- 0 1.0 3.1 44 142
- 1.044 1 2 cbr 500 ------- 0 1.0 3.1 11 106
+ 1.045 1 2 cbr 500 ------- 0 1.0 3.1 45 143
- 1.045929 2 3 tcp 1040 ------- 0 0.0 3.0 50 83
+ 1.046 1 2 cbr 500 ------- 0 1.0 3.1 46 144
r 1.046 1 2 cbr 500 ------- 0 1.0 3.1 8 102
+ 1.046 2 3 cbr 500 ------- 0 1.0 3.1 8 102
r 1.046684 2 3 tcp 1040 ------- 0 0.0 3.0 48 79
+ 1.046684 3 2 ack 40 ------- 0 3.0 0.0 31 145
- 1.046684 3 2 ack 40 ------- 0 3.0 0.0 31 145
+ 1.047 1 2 cbr 500 ------- 0 1.0 3.1 47 146
r 1.047796 3 2 ack 40 ------- 0 3.0 0.0 31 135
+ 1.047796 2 0 ack 40 ------- 0 3.0 0.0 31 135