V -t * -v 1.0a5 -a 0
A -t * -n 1 -p 0 -o 0x7fffffff -c 30 -a 1
A -t * -h 1 -m 1073741823 -s 0
c -t * -i 1 -n blue
n -t * -a 0 -s 0 -S UP -v circle -c black -i black
n -t * -a 1 -s 1 -S UP -v circle -c black -i black
n -t * -a 2 -s 2 -S UP -v circle -c black -i black
n -t * -a 3 -s 3 -S UP -v circle -c black -i black
l -t * -s 0 -d 2 -S UP -r 2000000 -D 0.01 -c black
l -t * -s 1 -d 2 -S UP -r 2000000 -D 0.01 -c black
l -t * -s 2 -d 3 -S UP -r 100000 -D 0.01 -c black
+ -t 0.6 -s 1 -d 2 -p tcp -e 40 -c 1 -i 0 -a 1 -x {1.0 3.1 0 ------- null}
- -t 0.6 -s 1 -d 2 -p tcp -e 40 -c 1 -i 0 -a 1 -x {1.0 3.1 0 ------- null}
h -t 0.6 -s 1 -d 2 -p tcp -e 40 -c 1 -i 0 -a 1 -x {1.0 3.1 -1 ------- null}
r -t 0.61016 -s 1 -d 2 -p tcp -e 40 -c 1 -i 0 -a 1 -x {1.0 3.1 0 ------- null}
+ -t 0.61016 -s 2 -d 3 -p tcp -e 40 -c 1 -i 0 -a 1 -x {1.0 3.1 0 ------- null}
- -t 0.61016 -s 2 -d 3 -p tcp -e 40 -c 1 -i 0 -a 1 -x {1.0 3.1 0 ------- null}
h -t 0.61016 -s 2 -d 3 -p tcp -e 40 -c 1 -i 0 -a 1 -x {1.0 3.1 -1 ------- null}
r -t 0.62336 -s 2 -d 3 -p tcp -e 40 -c 1 -i 0 -a 1 -x {1.0 3.1 0 ------- null}
+ -t 0.62336 -s 3 -d 2 -p ack -e 40 -c 1 -i 1 -a 1 -x {3.1 1.0 0 ------- null}
- -t 0.62336 -s 3 -d 2 -p ack -e 40 -c 1 -i 1 -a 1 -x {3.1 1.0 0 ------- null}
h -t 0.62336 -s 3 -d 2 -p ack -e 40 -c 1 -i 1 -a 1 -x {3.1 1.0 -1 ------- null}
r -t 0.63656 -s 3 -d 2 -p ack -e 40 -c 1 -i 1 -a 1 -x {3.1 1.0 0 ------- null}
+ -t 0.63656 -s 2 -d 1 -p ack -e 40 -c 1 -i 1 -a 1 -x {3.1 1.0 0 ------- null}
- -t 0.63656 -s 2 -d 1 -p ack -e 40 -c 1 -i 1 -a 1 -x {3.1 1.0 0 ------- null}
h -t 0.63656 -s 2 -d 1 -p ack -e 40 -c 1 -i 1 -a 1 -x {3.1 1.0 -1 ------- null}
r -t 0.64672 -s 2 -d 1 -p ack -e 40 -c 1 -i 1 -a 1 -x {3.1 1.0 0 ------- null}
+ -t 0.64672 -s 1 -d 2 -p tcp -e 1040 -c 1 -i 2 -a 1 -x {1.0 3.1 1 ------- null}
- -t 0.64672 -s 1 -d 2 -p tcp -e 1040 -c 1 -i 2 -a 1 -x {1.0 3.1 1 ------- null}
h -t 0.64672 -s 1 -d 2 -p tcp -e 1040 -c 1 -i 2 -a 1 -x {1.0 3.1 -1 ------- null}
+ -t 0.64672 -s 1 -d 2 -p tcp -e 1040 -c 1 -i 3 -a 1 -x {1.0 3.1 2 ------- null}
- -t 0.65088 -s 1 -d 2 -p tcp -e 1040 -c 1 -i 3 -a 1 -x {1.0 3.1 2 ------- null}
h -t 0.65088 -s 1 -d 2 -p tcp -e 1040 -c 1 -i 3 -a 1 -x {1.0 3.1 -1 ------- null}
r -t 0.66088 -s 1 -d 2 -p tcp -e 1040 -c 1 -i 2 -a 1 -x {1.0 3.1 1 ------- null}
+ -t 0.66088 -s 2 -d 3 -p tcp -e 1040 -c 1 -i 2 -a 1 -x {1.0 3.1 1 ------- null}
- -t 0.66088 -s 2 -d 3 -p tcp -e 1040 -c 1 -i 2 -a 1 -x {1.0 3.1 1 ------- null}
h -t 0.66088 -s 2 -d 3 -p tcp -e 1040 -c 1 -i 2 -a 1 -x {1.0 3.1 -1 ------- null}
r -t 0.66504 -s 1 -d 2 -p tcp -e 1040 -c 1 -i 3 -a 1 -x {1.0 3.1 2 ------- null}
+ -t 0.66504 -s 2 -d 3 -p tcp -e 1040 -c 1 -i 3 -a 1 -x {1.0 3.1 2 ------- null}
+ -t 0.707790344 -s 0 -d 2 -p tcp -e 40 -c 0 -i 4 -a 0 -x {0.0 3.0 0 ------- null}
- -t 0.707790344 -s 0 -d 2 -p tcp -e 40 -c 0 -i 4 -a 0 -x {0.0 3.0 0 ------- null}
h -t 0.707790344 -s 0 -d 2 -p tcp -e 40 -c 0 -i 4 -a 0 -x {0.0 3.0 -1 ------- null}
r -t 0.717950344 -s 0 -d 2 -p tcp -e 40 -c 0 -i 4 -a 0 -x {0.0 3.0 0 ------- null}
+ -t 0.717950344 -s 2 -d 3 -p tcp -e 40 -c 0 -i 4 -a 0 -x {0.0 3.0 0 ------- null}
- -t 0.74408 -s 2 -d 3 -p tcp -e 1040 -c 1 -i 3 -a 1 -x {1.0 3.1 2 ------- null}
h -t 0.74408 -s 2 -d 3 -p tcp -e 1040 -c 1 -i 3 -a 1 -x {1.0 3.1 -1 ------- null}
r -t 0.75408 -s 2 -d 3 -p tcp -e 1040 -c 1 -i 2 -a 1 -x {1.0 3.1 1 ------- null}
+ -t 0.75408 -s 3 -d 2 -p ack -e 40 -c 1 -i 5 -a 1 -x {3.1 1.0 1 ------- null}
- -t 0.75408 -s 3 -d 2 -p ack -e 40 -c 1 -i 5 -a 1 -x {3.1 1.0 1 ------- null}
h -t 0.75408 -s 3 -d 2 -p ack -e 40 -c 1 -i 5 -a 1 -x {3.1 1.0 -1 ------- null}
r -t 0.76728 -s 3 -d 2 -p ack -e 40 -c 1 -i 5 -a 1 -x {3.1 1.0 1 ------- null}
+ -t 0.76728 -s 2 -d 1 -p ack -e 40 -c 1 -i 5 -a 1 -x {3.1 1.0 1 ------- null}
- -t 0.76728 -s 2 -d 1 -p ack -e 40 -c 1 -i 5 -a 1 -x {3.1 1.0 1 ------- null}
h -t 0.76728 -s 2 -d 1 -p ack -e 40 -c 1 -i 5 -a 1 -x {3.1 1.0 -1 ------- null}
r -t 0.77744 -s 2 -d 1 -p ack -e 40 -c 1 -i 5 -a 1 -x {3.1 1.0 1 ------- null}
+ -t 0.77744 -s 1 -d 2 -p tcp -e 1040 -c 1 -i 6 -a 1 -x {1.0 3.1 3 ------- null}
- -t 0.77744 -s 1 -d 2 -p tcp -e 1040 -c 1 -i 6 -a 1 -x {1.0 3.1 3 ------- null}
h -t 0.77744 -s 1 -d 2 -p tcp -e 1040 -c 1 -i 6 -a 1 -x {1.0 3.1 -1 ------- null}
+ -t 0.77744 -s 1 -d 2 -p tcp -e 1040 -c 1 -i 7 -a 1 -x {1.0 3.1 4 ------- null}
- -t 0.7816 -s 1 -d 2 -p tcp -e 1040 -c 1 -i 7 -a 1 -x {1.0 3.1 4 ------- null}
h -t 0.7816 -s 1 -d 2 -p tcp -e 1040 -c 1 -i 7 -a 1 -x {1.0 3.1 -1 ------- null}
r -t 0.7916 -s 1 -d 2 -p tcp -e 1040 -c 1 -i 6 -a 1 -x {1.0 3.1 3 ------- null}
+ -t 0.7916 -s 2 -d 3 -p tcp -e 1040 -c 1 -i 6 -a 1 -x {1.0 3.1 3 ------- null}
r -t 0.79576 -s 1 -d 2 -p tcp -e 1040 -c 1 -i 7 -a 1 -x {1.0 3.1 4 ------- null}
+ -t 0.79576 -s 2 -d 3 -p tcp -e 1040 -c 1 -i 7 -a 1 -x {1.0 3.1 4 ------- null}
- -t 0.82728 -s 2 -d 3 -p tcp -e 40 -c 0 -i 4 -a 0 -x {0.0 3.0 0 ------- null}
h -t 0.82728 -s 2 -d 3 -p tcp -e 40 -c 0 -i 4 -a 0 -x {0.0 3.0 -1 ------- null}
- -t 0.83048 -s 2 -d 3 -p tcp -e 1040 -c 1 -i 6 -a 1 -x {1.0 3.1 3 ------- null}
h -t 0.83048 -s 2 -d 3 -p tcp -e 1040 -c 1 -i 6 -a 1 -x {1.0 3.1 -1 ------- null}
r -t 0.83728 -s 2 -d 3 -p tcp -e 1040 -c 1 -i 3 -a 1 -x {1.0 3.1 2 ------- null}
+ -t 0.83728 -s 3 -d 2 -p ack -e 40 -c 1 -i 8 -a 1 -x {3.1 1.0 2 ------- null}
- -t 0.83728 -s 3 -d 2 -p ack -e 40 -c 1 -i 8 -a 1 -x {3.1 1.0 2 ------- null}
h -t 0.83728 -s 3 -d 2 -p ack -e 40 -c 1 -i 8 -a 1 -x {3.1 1.0 -1 ------- null}
r -t 0.84048 -s 2 -d 3 -p tcp -e 40 -c 0 -i 4 -a 0 -x {0.0 3.0 0 ------- null}
+ -t 0.84048 -s 3 -d 2 -p ack -e 40 -c 0 -i 9 -a 0 -x {3.0 0.0 0 ------- null}
- -t 0.84048 -s 3 -d 2 -p ack -e 40 -c 0 -i 9 -a 0 -x {3.0 0.0 0 ------- null}
h -t 0.84048 -s 3 -d 2 -p ack -e 40 -c 0 -i 9 -a 0 -x {3.0 0.0 -1 ------- null}
r -t 0.85048 -s 3 -d 2 -p ack -e 40 -c 1 -i 8 -a 1 -x {3.1 1.0 2 ------- null}
+ -t 0.85048 -s 2 -d 1 -p ack -e 40 -c 1 -i 8 -a 1 -x {3.1 1.0 2 ------- null}
- -t 0.85048 -s 2 -d 1 -p ack -e 40 -c 1 -i 8 -a 1 -x {3.1 1.0 2 ------- null}
h -t 0.85048 -s 2 -d 1 -p ack -e 40 -c 1 -i 8 -a 1 -x {3.1 1.0 -1 ------- null}
r -t 0.85368 -s 3 -d 2 -p ack -e 40 -c 0 -i 9 -a 0 -x {3.0 0.0 0 ------- null}
+ -t 0.85368 -s 2 -d 0 -p ack -e 40 -c 0 -i 9 -a 0 -x {3.0 0.0 0 ------- null}
- -t 0.85368 -s 2 -d 0 -p ack -e 40 -c 0 -i 9 -a 0 -x {3.0 0.0 0 ------- null}
h -t 0.85368 -s 2 -d 0 -p ack -e 40 -c 0 -i 9 -a 0 -x {3.0 0.0 -1 ------- null}
r -t 0.86064 -s 2 -d 1 -p ack -e 40 -c 1 -i 8 -a 1 -x {3.1 1.0 2 ------- null}
+ -t 0.86064 -s 1 -d 2 -p tcp -e 1040 -c 1 -i 10 -a 1 -x {1.0 3.1 5 ------- null}
- -t 0.86064 -s 1 -d 2 -p tcp -e 1040 -c 1 -i 10 -a 1 -x {1.0 3.1 5 ------- null}
h -t 0.86064 -s 1 -d 2 -p tcp -e 1040 -c 1 -i 10 -a 1 -x {1.0 3.1 -1 ------- null}
+ -t 0.86064 -s 1 -d 2 -p tcp -e 1040 -c 1 -i 11 -a 1 -x {1.0 3.1 6 ------- null}
r -t 0.86384 -s 2 -d 0 -p ack -e 40 -c 0 -i 9 -a 0 -x {3.0 0.0 0 ------- null}
+ -t 0.86384 -s 0 -d 2 -p tcp -e 1040 -c 0 -i 12 -a 0 -x {0.0 3.0 1 ------- null}
- -t 0.86384 -s 0 -d 2 -p tcp -e 1040 -c 0 -i 12 -a 0 -x {0.0 3.0 1 ------- null}
h -t 0.86384 -s 0 -d 2 -p tcp -e 1040 -c 0 -i 12 -a 0 -x {0.0 3.0 -1 ------- null}
- -t 0.8648 -s 1 -d 2 -p tcp -e 1040 -c 1 -i 11 -a 1 -x {1.0 3.1 6 ------- null}
h -t 0.8648 -s 1 -d 2 -p tcp -e 1040 -c 1 -i 11 -a 1 -x {1.0 3.1 -1 ------- null}
r -t 0.8748 -s 1 -d 2 -p tcp -e 1040 -c 1 -i 10 -a 1 -x {1.0 3.1 5 ------- null}
+ -t 0.8748 -s 2 -d 3 -p tcp -e 1040 -c 1 -i 10 -a 1 -x {1.0 3.1 5 ------- null}
r -t 0.878 -s 0 -d 2 -p tcp -e 1040 -c 0 -i 12 -a 0 -x {0.0 3.0 1 ------- null}
+ -t 0.878 -s 2 -d 3 -p tcp -e 1040 -c 0 -i 12 -a 0 -x {0.0 3.0 1 ------- null}
r -t 0.87896 -s 1 -d 2 -p tcp -e 1040 -c 1 -i 11 -a 1 -x {1.0 3.1 6 ------- null}
+ -t 0.87896 -s 2 -d 3 -p tcp -e 1040 -c 1 -i 11 -a 1 -x {1.0 3.1 6 ------- null}
- -t 0.91368 -s 2 -d 3 -p tcp -e 1040 -c 1 -i 7 -a 1 -x {1.0 3.1 4 ------- null}
h -t 0.91368 -s 2 -d 3 -p tcp -e 1040 -c 1 -i 7 -a 1 -x {1.0 3.1 -1 ------- null}
r -t 0.92368 -s 2 -d 3 -p tcp -e 1040 -c 1 -i 6 -a 1 -x {1.0 3.1 3 ------- null}
+ -t 0.92368 -s 3 -d 2 -p ack -e 40 -c 1 -i 13 -a 1 -x {3.1 1.0 3 ------- null}
- -t 0.92368 -s 3 -d 2 -p ack -e 40 -c 1 -i 13 -a 1 -x {3.1 1.0 3 ------- null}
h -t 0.92368 -s 3 -d 2 -p ack -e 40 -c 1 -i 13 -a 1 -x {3.1 1.0 -1 ------- null}
r -t 0.93688 -s 3 -d 2 -p ack -e 40 -c 1 -i 13 -a 1 -x {3.1 1.0 3 ------- null}
+ -t 0.93688 -s 2 -d 1 -p ack -e 40 -c 1 -i 13 -a 1 -x {3.1 1.0 3 ------- null}
- -t 0.93688 -s 2 -d 1 -p ack -e 40 -c 1 -i 13 -a 1 -x {3.1 1.0 3 ------- null}
h -t 0.93688 -s 2 -d 1 -p ack -e 40 -c 1 -i 13 -a 1 -x {3.1 1.0 -1 ------- null}
r -t 0.94704 -s 2 -d 1 -p ack -e 40 -c 1 -i 13 -a 1 -x {3.1 1.0 3 ------- null}
+ -t 0.94704 -s 1 -d 2 -p tcp -e 1040 -c 1 -i 14 -a 1 -x {1.0 3.1 7 ------- null}
- -t 0.94704 -s 1 -d 2 -p tcp -e 1040 -c 1 -i 14 -a 1 -x {1.0 3.1 7 ------- null}
h -t 0.94704 -s 1 -d 2 -p tcp -e 1040 -c 1 -i 14 -a 1 -x {1.0 3.1 -1 ------- null}
+ -t 0.94704 -s 1 -d 2 -p tcp -e 1040 -c 1 -i 15 -a 1 -x {1.0 3.1 8 ------- null}
- -t 0.9512 -s 1 -d 2 -p tcp -e 1040 -c 1 -i 15 -a 1 -x {1.0 3.1 8 ------- null}
h -t 0.9512 -s 1 -d 2 -p tcp -e 1040 -c 1 -i 15 -a 1 -x {1.0 3.1 -1 ------- null}
r -t 0.9612 -s 1 -d 2 -p tcp -e 1040 -c 1 -i 14 -a 1 -x {1.0 3.1 7 ------- null}
+ -t 0.9612 -s 2 -d 3 -p tcp -e 1040 -c 1 -i 14 -a 1 -x {1.0 3.1 7 ------- null}
r -t 0.96536 -s 1 -d 2 -p tcp -e 1040 -c 1 -i 15 -a 1 -x {1.0 3.1 8 ------- null}
+ -t 0.96536 -s 2 -d 3 -p tcp -e 1040 -c 1 -i 15 -a 1 -x {1.0 3.1 8 ------- null}
- -t 0.99688 -s 2 -d 3 -p tcp -e 1040 -c 1 -i 10 -a 1 -x {1.0 3.1 5 ------- null}
h -t 0.99688 -s 2 -d 3 -p tcp -e 1040 -c 1 -i 10 -a 1 -x {1.0 3.1 -1 ------- null}
r -t 1.00688 -s 2 -d 3 -p tcp -e 1040 -c 1 -i 7 -a 1 -x {1.0 3.1 4 ------- null}
+ -t 1.00688 -s 3 -d 2 -p ack -e 40 -c 1 -i 16 -a 1 -x {3.1 1.0 4 ------- null}
- -t 1.00688 -s 3 -d 2 -p ack -e 40 -c 1 -i 16 -a 1 -x {3.1 1.0 4 ------- null}
h -t 1.00688 -s 3 -d 2 -p ack -e 40 -c 1 -i 16 -a 1 -x {3.1 1.0 -1 ------- null}
r -t 1.02008 -s 3 -d 2 -p ack -e 40 -c 1 -i 16 -a 1 -x {3.1 1.0 4 ------- null}
+ -t 1.02008 -s 2 -d 1 -p ack -e 40 -c 1 -i 16 -a 1 -x {3.1 1.0 4 ------- null}
- -t 1.02008 -s 2 -d 1 -p ack -e 40 -c 1 -i 16 -a 1 -x {3.1 1.0 4 ------- null}
h -t 1.02008 -s 2 -d 1 -p ack -e 40 -c 1 -i 16 -a 1 -x {3.1 1.0 -1 ------- null}
r -t 1.03024 -s 2 -d 1 -p ack -e 40 -c 1 -i 16 -a 1 -x {3.1 1.0 4 ------- null}
+ -t 1.03024 -s 1 -d 2 -p tcp -e 1040 -c 1 -i 17 -a 1 -x {1.0 3.1 9 ------- null}
- -t 1.03024 -s 1 -d 2 -p tcp -e 1040 -c 1 -i 17 -a 1 -x {1.0 3.1 9 ------- null}
h -t 1.03024 -s 1 -d 2 -p tcp -e 1040 -c 1 -i 17 -a 1 -x {1.0 3.1 -1 ------- null}
+ -t 1.03024 -s 1 -d 2 -p tcp -e 1040 -c 1 -i 18 -a 1 -x {1.0 3.1 10 ------- null}
- -t 1.0344 -s 1 -d 2 -p tcp -e 1040 -c 1 -i 18 -a 1 -x {1.0 3.1 10 ------- null}
h -t 1.0344 -s 1 -d 2 -p tcp -e 1040 -c 1 -i 18 -a 1 -x {1.0 3.1 -1 ------- null}
r -t 1.0444 -s 1 -d 2 -p tcp -e 1040 -c 1 -i 17 -a 1 -x {1.0 3.1 9 ------- null}
+ -t 1.0444 -s 2 -d 3 -p tcp -e 1040 -c 1 -i 17 -a 1 -x {1.0 3.1 9 ------- null}
r -t 1.04856 -s 1 -d 2 -p tcp -e 1040 -c 1 -i 18 -a 1 -x {1.0 3.1 10 ------- null}
+ -t 1.04856 -s 2 -d 3 -p tcp -e 1040 -c 1 -i 18 -a 1 -x {1.0 3.1 10 ------- null}
- -t 1.08008 -s 2 -d 3 -p tcp -e 1040 -c 0 -i 12 -a 0 -x {0.0 3.0 1 ------- null}
h -t 1.08008 -s 2 -d 3 -p tcp -e 1040 -c 0 -i 12 -a 0 -x {0.0 3.0 -1 ------- null}
r -t 1.09008 -s 2 -d 3 -p tcp -e 1040 -c 1 -i 10 -a 1 -x {1.0 3.1 5 ------- null}
+ -t 1.09008 -s 3 -d 2 -p ack -e 40 -c 1 -i 19 -a 1 -x {3.1 1.0 5 ------- null}
- -t 1.09008 -s 3 -d 2 -p ack -e 40 -c 1 -i 19 -a 1 -x {3.1 1.0 5 ------- null}
h -t 1.09008 -s 3 -d 2 -p ack -e 40 -c 1 -i 19 -a 1 -x {3.1 1.0 -1 ------- null}
r -t 1.10328 -s 3 -d 2 -p ack -e 40 -c 1 -i 19 -a 1 -x {3.1 1.0 5 ------- null}
+ -t 1.10328 -s 2 -d 1 -p ack -e 40 -c 1 -i 19 -a 1 -x {3.1 1.0 5 ------- null}
- -t 1.10328 -s 2 -d 1 -p ack -e 40 -c 1 -i 19 -a 1 -x {3.1 1.0 5 ------- null}
h -t 1.10328 -s 2 -d 1 -p ack -e 40 -c 1 -i 19 -a 1 -x {3.1 1.0 -1 ------- null}
r -t 1.11344 -s 2 -d 1 -p ack -e 40 -c 1 -i 19 -a 1 -x {3.1 1.0 5 ------- null}
+ -t 1.11344 -s 1 -d 2 -p tcp -e 1040 -c 1 -i 20 -a 1 -x {1.0 3.1 11 ------- null}
- -t 1.11344 -s 1 -d 2 -p tcp -e 1040 -c 1 -i 20 -a 1 -x {1.0 3.1 11 ------- null}
h -t 1.11344 -s 1 -d 2 -p tcp -e 1040 -c 1 -i 20 -a 1 -x {1.0 3.1 -1 ------- null}
+ -t 1.11344 -s 1 -d 2 -p tcp -e 1040 -c 1 -i 21 -a 1 -x {1.0 3.1 12 ------- null}
- -t 1.1176 -s 1 -d 2 -p tcp -e 1040 -c 1 -i 21 -a 1 -x {1.0 3.1 12 ------- null}
h -t 1.1176 -s 1 -d 2 -p tcp -e 1040 -c 1 -i 21 -a 1 -x {1.0 3.1 -1 ------- null}
r -t 1.1276 -s 1 -d 2 -p tcp -e 1040 -c 1 -i 20 -a 1 -x {1.0 3.1 11 ------- null}
+ -t 1.1276 -s 2 -d 3 -p tcp -e 1040 -c 1 -i 20 -a 1 -x {1.0 3.1 11 ------- null}
r -t 1.13176 -s 1 -d 2 -p tcp -e 1040 -c 1 -i 21 -a 1 -x {1.0 3.1 12 ------- null}
+ -t 1.13176 -s 2 -d 3 -p tcp -e 1040 -c 1 -i 21 -a 1 -x {1.0 3.1 12 ------- null}
- -t 1.16328 -s 2 -d 3 -p tcp -e 1040 -c 1 -i 11 -a 1 -x {1.0 3.1 6 ------- null}
h -t 1.16328 -s 2 -d 3 -p tcp -e 1040 -c 1 -i 11 -a 1 -x {1.0 3.1 -1 ------- null}
r -t 1.17328 -s 2 -d 3 -p tcp -e 1040 -c 0 -i 12 -a 0 -x {0.0 3.0 1 ------- null}
+ -t 1.17328 -s 3 -d 2 -p ack -e 40 -c 0 -i 22 -a 0 -x {3.0 0.0 1 ------- null}
- -t 1.17328 -s 3 -d 2 -p ack -e 40 -c 0 -i 22 -a 0 -x {3.0 0.0 1 ------- null}
h -t 1.17328 -s 3 -d 2 -p ack -e 40 -c 0 -i 22 -a 0 -x {3.0 0.0 -1 ------- null}
r -t 1.18648 -s 3 -d 2 -p ack -e 40 -c 0 -i 22 -a 0 -x {3.0 0.0 1 ------- null}
+ -t 1.18648 -s 2 -d 0 -p ack -e 40 -c 0 -i 22 -a 0 -x {3.0 0.0 1 ------- null}
- -t 1.18648 -s 2 -d 0 -p ack -e 40 -c 0 -i 22 -a 0 -x {3.0 0.0 1 ------- null}
h -t 1.18648 -s 2 -d 0 -p ack -e 40 -c 0 -i 22 -a 0 -x {3.0 0.0 -1 ------- null}
r -t 1.19664 -s 2 -d 0 -p ack -e 40 -c 0 -i 22 -a 0 -x {3.0 0.0 1 ------- null}
- -t 1.24648 -s 2 -d 3 -p tcp -e 1040 -c 1 -i 14 -a 1 -x {1.0 3.1 7 ------- null}
h -t 1.24648 -s 2 -d 3 -p tcp -e 1040 -c 1 -i 14 -a 1 -x {1.0 3.1 -1 ------- null}
r -t 1.25648 -s 2 -d 3 -p tcp -e 1040 -c 1 -i 11 -a 1 -x {1.0 3.1 6 ------- null}
+ -t 1.25648 -s 3 -d 2 -p ack -e 40 -c 1 -i 23 -a 1 -x {3.1 1.0 6 ------- null}
- -t 1.25648 -s 3 -d 2 -p ack -e 40 -c 1 -i 23 -a 1 -x {3.1 1.0 6 ------- null}
h -t 1.25648 -s 3 -d 2 -p ack -e 40 -c 1 -i 23 -a 1 -x {3.1 1.0 -1 ------- null}
r -t 1.26968 -s 3 -d 2 -p ack -e 40 -c 1 -i 23 -a 1 -x {3.1 1.0 6 ------- null}
+ -t 1.26968 -s 2 -d 1 -p ack -e 40 -c 1 -i 23 -a 1 -x {3.1 1.0 6 ------- null}
- -t 1.26968 -s 2 -d 1 -p ack -e 40 -c 1 -i 23 -a 1 -x {3.1 1.0 6 ------- null}
h -t 1.26968 -s 2 -d 1 -p ack -e 40 -c 1 -i 23 -a 1 -x {3.1 1.0 -1 ------- null}
r -t 1.27984 -s 2 -d 1 -p ack -e 40 -c 1 -i 23 -a 1 -x {3.1 1.0 6 ------- null}
+ -t 1.27984 -s 1 -d 2 -p tcp -e 1040 -c 1 -i 24 -a 1 -x {1.0 3.1 13 ------- null}
- -t 1.27984 -s 1 -d 2 -p tcp -e 1040 -c 1 -i 24 -a 1 -x {1.0 3.1 13 ------- null}
h -t 1.27984 -s 1 -d 2 -p tcp -e 1040 -c 1 -i 24 -a 1 -x {1.0 3.1 -1 ------- null}
+ -t 1.27984 -s 1 -d 2 -p tcp -e 1040 -c 1 -i 25 -a 1 -x {1.0 3.1 14 ------- null}
- -t 1.284 -s 1 -d 2 -p tcp -e 1040 -c 1 -i 25 -a 1 -x {1.0 3.1 14 ------- null}
h -t 1.284 -s 1 -d 2 -p tcp -e 1040 -c 1 -i 25 -a 1 -x {1.0 3.1 -1 ------- null}
r -t 1.294 -s 1 -d 2 -p tcp -e 1040 -c 1 -i 24 -a 1 -x {1.0 3.1 13 ------- null}
+ -t 1.294 -s 2 -d 3 -p tcp -e 1040 -c 1 -i 24 -a 1 -x {1.0 3.1 13 ------- null}
r -t 1.29816 -s 1 -d 2 -p tcp -e 1040 -c 1 -i 25 -a 1 -x {1.0 3.1 14 ------- null}
+ -t 1.29816 -s 2 -d 3 -p tcp -e 1040 -c 1 -i 25 -a 1 -x {1.0 3.1 14 ------- null}
- -t 1.32968 -s 2 -d 3 -p tcp -e 1040 -c 1 -i 15 -a 1 -x {1.0 3.1 8 ------- null}
h -t 1.32968 -s 2 -d 3 -p tcp -e 1040 -c 1 -i 15 -a 1 -x {1.0 3.1 -1 ------- null}
r -t 1.33968 -s 2 -d 3 -p tcp -e 1040 -c 1 -i 14 -a 1 -x {1.0 3.1 7 ------- null}
+ -t 1.33968 -s 3 -d 2 -p ack -e 40 -c 1 -i 26 -a 1 -x {3.1 1.0 7 ------- null}
- -t 1.33968 -s 3 -d 2 -p ack -e 40 -c 1 -i 26 -a 1 -x {3.1 1.0 7 ------- null}
h -t 1.33968 -s 3 -d 2 -p ack -e 40 -c 1 -i 26 -a 1 -x {3.1 1.0 -1 ------- null}
r -t 1.35288 -s 3 -d 2 -p ack -e 40 -c 1 -i 26 -a 1 -x {3.1 1.0 7 ------- null}
+ -t 1.35288 -s 2 -d 1 -p ack -e 40 -c 1 -i 26 -a 1 -x {3.1 1.0 7 ------- null}
- -t 1.35288 -s 2 -d 1 -p ack -e 40 -c 1 -i 26 -a 1 -x {3.1 1.0 7 ------- null}
h -t 1.35288 -s 2 -d 1 -p ack -e 40 -c 1 -i 26 -a 1 -x {3.1 1.0 -1 ------- null}
r -t 1.36304 -s 2 -d 1 -p ack -e 40 -c 1 -i 26 -a 1 -x {3.1 1.0 7 ------- null}
+ -t 1.36304 -s 1 -d 2 -p tcp -e 1040 -c 1 -i 27 -a 1 -x {1.0 3.1 15 ------- null}
- -t 1.36304 -s 1 -d 2 -p tcp -e 1040 -c 1 -i 27 -a 1 -x {1.0 3.1 15 ------- null}
h -t 1.36304 -s 1 -d 2 -p tcp -e 1040 -c 1 -i 27 -a 1 -x {1.0 3.1 -1 ------- null}
+ -t 1.36304 -s 1 -d 2 -p tcp -e 1040 -c 1 -i 28 -a 1 -x {1.0 3.1 16 ------- null}
- -t 1.3672 -s 1 -d 2 -p tcp -e 1040 -c 1 -i 28 -a 1 -x {1.0 3.1 16 ------- null}
h -t 1.3672 -s 1 -d 2 -p tcp -e 1040 -c 1 -i 28 -a 1 -x {1.0 3.1 -1 ------- null}
r -t 1.3772 -s 1 -d 2 -p tcp -e 1040 -c 1 -i 27 -a 1 -x {1.0 3.1 15 ------- null}
+ -t 1.3772 -s 2 -d 3 -p tcp -e 1040 -c 1 -i 27 -a 1 -x {1.0 3.1 15 ------- null}
r -t 1.38136 -s 1 -d 2 -p tcp -e 1040 -c 1 -i 28 -a 1 -x {1.0 3.1 16 ------- null}
+ -t 1.38136 -s 2 -d 3 -p tcp -e 1040 -c 1 -i 28 -a 1 -x {1.0 3.1 16 ------- null}
- -t 1.41288 -s 2 -d 3 -p tcp -e 1040 -c 1 -i 17 -a 1 -x {1.0 3.1 9 ------- null}
h -t 1.41288 -s 2 -d 3 -p tcp -e 1040 -c 1 -i 17 -a 1 -x {1.0 3.1 -1 ------- null}
r -t 1.42288 -s 2 -d 3 -p tcp -e 1040 -c 1 -i 15 -a 1 -x {1.0 3.1 8 ------- null}
+ -t 1.42288 -s 3 -d 2 -p ack -e 40 -c 1 -i 29 -a 1 -x {3.1 1.0 8 ------- null}
- -t 1.42288 -s 3 -d 2 -p ack -e 40 -c 1 -i 29 -a 1 -x {3.1 1.0 8 ------- null}
h -t 1.42288 -s 3 -d 2 -p ack -e 40 -c 1 -i 29 -a 1 -x {3.1 1.0 -1 ------- null}
+ -t 1.431390747 -s 0 -d 2 -p tcp -e 1040 -c 0 -i 30 -a 0 -x {0.0 3.0 2 ------- null}
- -t 1.431390747 -s 0 -d 2 -p tcp -e 1040 -c 0 -i 30 -a 0 -x {0.0 3.0 2 ------- null}
h -t 1.431390747 -s 0 -d 2 -p tcp -e 1040 -c 0 -i 30 -a 0 -x {0.0 3.0 -1 ------- null}
r -t 1.43608 -s 3 -d 2 -p ack -e 40 -c 1 -i 29 -a 1 -x {3.1 1.0 8 ------- null}
+ -t 1.43608 -s 2 -d 1 -p ack -e 40 -c 1 -i 29 -a 1 -x {3.1 1.0 8 ------- null}
- -t 1.43608 -s 2 -d 1 -p ack -e 40 -c 1 -i 29 -a 1 -x {3.1 1.0 8 ------- null}
h -t 1.43608 -s 2 -d 1 -p ack -e 40 -c 1 -i 29 -a 1 -x {3.1 1.0 -1 ------- null}
r -t 1.445550747 -s 0 -d 2 -p tcp -e 1040 -c 0 -i 30 -a 0 -x {0.0 3.0 2 ------- null}
+ -t 1.445550747 -s 2 -d 3 -p tcp -e 1040 -c 0 -i 30 -a 0 -x {0.0 3.0 2 ------- null}
r -t 1.44624 -s 2 -d 1 -p ack -e 40 -c 1 -i 29 -a 1 -x {3.1 1.0 8 ------- null}
+ -t 1.44624 -s 1 -d 2 -p tcp -e 1040 -c 1 -i 31 -a 1 -x {1.0 3.1 17 ------- null}
- -t 1.44624 -s 1 -d 2 -p tcp -e 1040 -c 1 -i 31 -a 1 -x {1.0 3.1 17 ------- null}
h -t 1.44624 -s 1 -d 2 -p tcp -e 1040 -c 1 -i 31 -a 1 -x {1.0 3.1 -1 ------- null}
+ -t 1.44624 -s 1 -d 2 -p tcp -e 1040 -c 1 -i 32 -a 1 -x {1.0 3.1 18 ------- null}
- -t 1.4504 -s 1 -d 2 -p tcp -e 1040 -c 1 -i 32 -a 1 -x {1.0 3.1 18 ------- null}
h -t 1.4504 -s 1 -d 2 -p tcp -e 1040 -c 1 -i 32 -a 1 -x {1.0 3.1 -1 ------- null}
r -t 1.4604 -s 1 -d 2 -p tcp -e 1040 -c 1 -i 31 -a 1 -x {1.0 3.1 17 ------- null}
+ -t 1.4604 -s 2 -d 3 -p tcp -e 1040 -c 1 -i 31 -a 1 -x {1.0 3.1 17 ------- null}
r -t 1.46456 -s 1 -d 2 -p tcp -e 1040 -c 1 -i 32 -a 1 -x {1.0 3.1 18 ------- null}
+ -t 1.46456 -s 2 -d 3 -p tcp -e 1040 -c 1 -i 32 -a 1 -x {1.0 3.1 18 ------- null}
- -t 1.49608 -s 2 -d 3 -p tcp -e 1040 -c 1 -i 18 -a 1 -x {1.0 3.1 10 ------- null}
h -t 1.49608 -s 2 -d 3 -p tcp -e 1040 -c 1 -i 18 -a 1 -x {1.0 3.1 -1 ------- null}
r -t 1.50608 -s 2 -d 3 -p tcp -e 1040 -c 1 -i 17 -a 1 -x {1.0 3.1 9 ------- null}
+ -t 1.50608 -s 3 -d 2 -p ack -e 40 -c 1 -i 33 -a 1 -x {3.1 1.0 9 ------- null}
- -t 1.50608 -s 3 -d 2 -p ack -e 40 -c 1 -i 33 -a 1 -x {3.1 1.0 9 ------- null}
h -t 1.50608 -s 3 -d 2 -p ack -e 40 -c 1 -i 33 -a 1 -x {3.1 1.0 -1 ------- null}
r -t 1.51928 -s 3 -d 2 -p ack -e 40 -c 1 -i 33 -a 1 -x {3.1 1.0 9 ------- null}
+ -t 1.51928 -s 2 -d 1 -p ack -e 40 -c 1 -i 33 -a 1 -x {3.1 1.0 9 ------- null}
- -t 1.51928 -s 2 -d 1 -p ack -e 40 -c 1 -i 33 -a 1 -x {3.1 1.0 9 ------- null}
h -t 1.51928 -s 2 -d 1 -p ack -e 40 -c 1 -i 33 -a 1 -x {3.1 1.0 -1 ------- null}
r -t 1.52944 -s 2 -d 1 -p ack -e 40 -c 1 -i 33 -a 1 -x {3.1 1.0 9 ------- null}
+ -t 1.52944 -s 1 -d 2 -p tcp -e 1040 -c 1 -i 34 -a 1 -x {1.0 3.1 19 ------- null}
- -t 1.52944 -s 1 -d 2 -p tcp -e 1040 -c 1 -i 34 -a 1 -x {1.0 3.1 19 ------- null}
h -t 1.52944 -s 1 -d 2 -p tcp -e 1040 -c 1 -i 34 -a 1 -x {1.0 3.1 -1 ------- null}
+ -t 1.52944 -s 1 -d 2 -p tcp -e 1040 -c 1 -i 35 -a 1 -x {1.0 3.1 20 ------- null}
- -t 1.5336 -s 1 -d 2 -p tcp -e 1040 -c 1 -i 35 -a 1 -x {1.0 3.1 20 ------- null}
h -t 1.5336 -s 1 -d 2 -p tcp -e 1040 -c 1 -i 35 -a 1 -x {1.0 3.1 -1 ------- null}
r -t 1.5436 -s 1 -d 2 -p tcp -e 1040 -c 1 -i 34 -a 1 -x {1.0 3.1 19 ------- null}
+ -t 1.5436 -s 2 -d 3 -p tcp -e 1040 -c 1 -i 34 -a 1 -x {1.0 3.1 19 ------- null}
r -t 1.54776 -s 1 -d 2 -p tcp -e 1040 -c 1 -i 35 -a 1 -x {1.0 3.1 20 ------- null}
+ -t 1.54776 -s 2 -d 3 -p tcp -e 1040 -c 1 -i 35 -a 1 -x {1.0 3.1 20 ------- null}
- -t 1.57928 -s 2 -d 3 -p tcp -e 1040 -c 1 -i 20 -a 1 -x {1.0 3.1 11 ------- null}
h -t 1.57928 -s 2 -d 3 -p tcp -e 1040 -c 1 -i 20 -a 1 -x {1.0 3.1 -1 ------- null}
r -t 1.58928 -s 2 -d 3 -p tcp -e 1040 -c 1 -i 18 -a 1 -x {1.0 3.1 10 ------- null}
+ -t 1.58928 -s 3 -d 2 -p ack -e 40 -c 1 -i 36 -a 1 -x {3.1 1.0 10 ------- null}
- -t 1.58928 -s 3 -d 2 -p ack -e 40 -c 1 -i 36 -a 1 -x {3.1 1.0 10 ------- null}
h -t 1.58928 -s 3 -d 2 -p ack -e 40 -c 1 -i 36 -a 1 -x {3.1 1.0 -1 ------- null}
+ -t 1.59171315 -s 0 -d 2 -p tcp -e 1040 -c 0 -i 37 -a 0 -x {0.0 3.0 3 ------- null}
- -t 1.59171315 -s 0 -d 2 -p tcp -e 1040 -c 0 -i 37 -a 0 -x {0.0 3.0 3 ------- null}
h -t 1.59171315 -s 0 -d 2 -p tcp -e 1040 -c 0 -i 37 -a 0 -x {0.0 3.0 -1 ------- null}
r -t 1.60248 -s 3 -d 2 -p ack -e 40 -c 1 -i 36 -a 1 -x {3.1 1.0 10 ------- null}
+ -t 1.60248 -s 2 -d 1 -p ack -e 40 -c 1 -i 36 -a 1 -x {3.1 1.0 10 ------- null}
- -t 1.60248 -s 2 -d 1 -p ack -e 40 -c 1 -i 36 -a 1 -x {3.1 1.0 10 ------- null}
h -t 1.60248 -s 2 -d 1 -p ack -e 40 -c 1 -i 36 -a 1 -x {3.1 1.0 -1 ------- null}
r -t 1.60587315 -s 0 -d 2 -p tcp -e 1040 -c 0 -i 37 -a 0 -x {0.0 3.0 3 ------- null}
+ -t 1.60587315 -s 2 -d 3 -p tcp -e 1040 -c 0 -i 37 -a 0 -x {0.0 3.0 3 ------- null}
r -t 1.61264 -s 2 -d 1 -p ack -e 40 -c 1 -i 36 -a 1 -x {3.1 1.0 10 ------- null}
+ -t 1.61264 -s 1 -d 2 -p tcp -e 1040 -c 1 -i 38 -a 1 -x {1.0 3.1 21 ------- null}
- -t 1.61264 -s 1 -d 2 -p tcp -e 1040 -c 1 -i 38 -a 1 -x {1.0 3.1 21 ------- null}
h -t 1.61264 -s 1 -d 2 -p tcp -e 1040 -c 1 -i 38 -a 1 -x {1.0 3.1 -1 ------- null}
+ -t 1.61264 -s 1 -d 2 -p tcp -e 1040 -c 1 -i 39 -a 1 -x {1.0 3.1 22 ------- null}
- -t 1.6168 -s 1 -d 2 -p tcp -e 1040 -c 1 -i 39 -a 1 -x {1.0 3.1 22 ------- null}
h -t 1.6168 -s 1 -d 2 -p tcp -e 1040 -c 1 -i 39 -a 1 -x {1.0 3.1 -1 ------- null}
r -t 1.6268 -s 1 -d 2 -p tcp -e 1040 -c 1 -i 38 -a 1 -x {1.0 3.1 21 ------- null}
+ -t 1.6268 -s 2 -d 3 -p tcp -e 1040 -c 1 -i 38 -a 1 -x {1.0 3.1 21 ------- null}
r -t 1.63096 -s 1 -d 2 -p tcp -e 1040 -c 1 -i 39 -a 1 -x {1.0 3.1 22 ------- null}
+ -t 1.63096 -s 2 -d 3 -p tcp -e 1040 -c 1 -i 39 -a 1 -x {1.0 3.1 22 ------- null}
- -t 1.66248 -s 2 -d 3 -p tcp -e 1040 -c 1 -i 21 -a 1 -x {1.0 3.1 12 ------- null}
h -t 1.66248 -s 2 -d 3 -p tcp -e 1040 -c 1 -i 21 -a 1 -x {1.0 3.1 -1 ------- null}
r -t 1.67248 -s 2 -d 3 -p tcp -e 1040 -c 1 -i 20 -a 1 -x {1.0 3.1 11 ------- null}
+ -t 1.67248 -s 3 -d 2 -p ack -e 40 -c 1 -i 40 -a 1 -x {3.1 1.0 11 ------- null}
- -t 1.67248 -s 3 -d 2 -p ack -e 40 -c 1 -i 40 -a 1 -x {3.1 1.0 11 ------- null}
h -t 1.67248 -s 3 -d 2 -p ack -e 40 -c 1 -i 40 -a 1 -x {3.1 1.0 -1 ------- null}
r -t 1.68568 -s 3 -d 2 -p ack -e 40 -c 1 -i 40 -a 1 -x {3.1 1.0 11 ------- null}
+ -t 1.68568 -s 2 -d 1 -p ack -e 40 -c 1 -i 40 -a 1 -x {3.1 1.0 11 ------- null}
- -t 1.68568 -s 2 -d 1 -p ack -e 40 -c 1 -i 40 -a 1 -x {3.1 1.0 11 ------- null}
h -t 1.68568 -s 2 -d 1 -p ack -e 40 -c 1 -i 40 -a 1 -x {3.1 1.0 -1 ------- null}
r -t 1.69584 -s 2 -d 1 -p ack -e 40 -c 1 -i 40 -a 1 -x {3.1 1.0 11 ------- null}
+ -t 1.69584 -s 1 -d 2 -p tcp -e 1040 -c 1 -i 41 -a 1 -x {1.0 3.1 23 ------- null}
- -t 1.69584 -s 1 -d 2 -p tcp -e 1040 -c 1 -i 41 -a 1 -x {1.0 3.1 23 ------- null}
h -t 1.69584 -s 1 -d 2 -p tcp -e 1040 -c 1 -i 41 -a 1 -x {1.0 3.1 -1 ------- null}
+ -t 1.69584 -s 1 -d 2 -p tcp -e 1040 -c 1 -i 42 -a 1 -x {1.0 3.1 24 ------- null}
- -t 1.7 -s 1 -d 2 -p tcp -e 1040 -c 1 -i 42 -a 1 -x {1.0 3.1 24 ------- null}
h -t 1.7 -s 1 -d 2 -p tcp -e 1040 -c 1 -i 42 -a 1 -x {1.0 3.1 -1 ------- null}
r -t 1.71 -s 1 -d 2 -p tcp -e 1040 -c 1 -i 41 -a 1 -x {1.0 3.1 23 ------- null}
+ -t 1.71 -s 2 -d 3 -p tcp -e 1040 -c 1 -i 41 -a 1 -x {1.0 3.1 23 ------- null}
r -t 1.71416 -s 1 -d 2 -p tcp -e 1040 -c 1 -i 42 -a 1 -x {1.0 3.1 24 ------- null}
+ -t 1.71416 -s 2 -d 3 -p tcp -e 1040 -c 1 -i 42 -a 1 -x {1.0 3.1 24 ------- null}
- -t 1.74568 -s 2 -d 3 -p tcp -e 1040 -c 1 -i 24 -a 1 -x {1.0 3.1 13 ------- null}
h -t 1.74568 -s 2 -d 3 -p tcp -e 1040 -c 1 -i 24 -a 1 -x {1.0 3.1 -1 ------- null}
r -t 1.75568 -s 2 -d 3 -p tcp -e 1040 -c 1 -i 21 -a 1 -x {1.0 3.1 12 ------- null}
+ -t 1.75568 -s 3 -d 2 -p ack -e 40 -c 1 -i 43 -a 1 -x {3.1 1.0 12 ------- null}
- -t 1.75568 -s 3 -d 2 -p ack -e 40 -c 1 -i 43 -a 1 -x {3.1 1.0 12 ------- null}
h -t 1.75568 -s 3 -d 2 -p ack -e 40 -c 1 -i 43 -a 1 -x {3.1 1.0 -1 ------- null}
r -t 1.76888 -s 3 -d 2 -p ack -e 40 -c 1 -i 43 -a 1 -x {3.1 1.0 12 ------- null}
+ -t 1.76888 -s 2 -d 1 -p ack -e 40 -c 1 -i 43 -a 1 -x {3.1 1.0 12 ------- null}
- -t 1.76888 -s 2 -d 1 -p ack -e 40 -c 1 -i 43 -a 1 -x {3.1 1.0 12 ------- null}
h -t 1.76888 -s 2 -d 1 -p ack -e 40 -c 1 -i 43 -a 1 -x {3.1 1.0 -1 ------- null}
r -t 1.77904 -s 2 -d 1 -p ack -e 40 -c 1 -i 43 -a 1 -x {3.1 1.0 12 ------- null}
+ -t 1.77904 -s 1 -d 2 -p tcp -e 1040 -c 1 -i 44 -a 1 -x {1.0 3.1 25 ------- null}
- -t 1.77904 -s 1 -d 2 -p tcp -e 1040 -c 1 -i 44 -a 1 -x {1.0 3.1 25 ------- null}
h -t 1.77904 -s 1 -d 2 -p tcp -e 1040 -c 1 -i 44 -a 1 -x {1.0 3.1 -1 ------- null}
+ -t 1.77904 -s 1 -d 2 -p tcp -e 1040 -c 1 -i 45 -a 1 -x {1.0 3.1 26 ------- null}
- -t 1.7832 -s 1 -d 2 -p tcp -e 1040 -c 1 -i 45 -a 1 -x {1.0 3.1 26 ------- null}
h -t 1.7832 -s 1 -d 2 -p tcp -e 1040 -c 1 -i 45 -a 1 -x {1.0 3.1 -1 ------- null}
r -t 1.7932 -s 1 -d 2 -p tcp -e 1040 -c 1 -i 44 -a 1 -x {1.0 3.1 25 ------- null}
+ -t 1.7932 -s 2 -d 3 -p tcp -e 1040 -c 1 -i 44 -a 1 -x {1.0 3.1 25 ------- null}
r -t 1.79736 -s 1 -d 2 -p tcp -e 1040 -c 1 -i 45 -a 1 -x {1.0 3.1 26 ------- null}
+ -t 1.79736 -s 2 -d 3 -p tcp -e 1040 -c 1 -i 45 -a 1 -x {1.0 3.1 26 ------- null}
- -t 1.82888 -s 2 -d 3 -p tcp -e 1040 -c 1 -i 25 -a 1 -x {1.0 3.1 14 ------- null}
h -t 1.82888 -s 2 -d 3 -p tcp -e 1040 -c 1 -i 25 -a 1 -x {1.0 3.1 -1 ------- null}
r -t 1.83888 -s 2 -d 3 -p tcp -e 1040 -c 1 -i 24 -a 1 -x {1.0 3.1 13 ------- null}
+ -t 1.83888 -s 3 -d 2 -p ack -e 40 -c 1 -i 46 -a 1 -x {3.1 1.0 13 ------- null}
- -t 1.83888 -s 3 -d 2 -p ack -e 40 -c 1 -i 46 -a 1 -x {3.1 1.0 13 ------- null}
h -t 1.83888 -s 3 -d 2 -p ack -e 40 -c 1 -i 46 -a 1 -x {3.1 1.0 -1 ------- null}
r -t 1.85208 -s 3 -d 2 -p ack -e 40 -c 1 -i 46 -a 1 -x {3.1 1.0 13 ------- null}
+ -t 1.85208 -s 2 -d 1 -p ack -e 40 -c 1 -i 46 -a 1 -x {3.1 1.0 13 ------- null}
- -t 1.85208 -s 2 -d 1 -p ack -e 40 -c 1 -i 46 -a 1 -x {3.1 1.0 13 ------- null}
h -t 1.85208 -s 2 -d 1 -p ack -e 40 -c 1 -i 46 -a 1 -x {3.1 1.0 -1 ------- null}
r -t 1.86224 -s 2 -d 1 -p ack -e 40 -c 1 -i 46 -a 1 -x {3.1 1.0 13 ------- null}
+ -t 1.86224 -s 1 -d 2 -p tcp -e 1040 -c 1 -i 47 -a 1 -x {1.0 3.1 27 ------- null}
- -t 1.86224 -s 1 -d 2 -p tcp -e 1040 -c 1 -i 47 -a 1 -x {1.0 3.1 27 ------- null}
h -t 1.86224 -s 1 -d 2 -p tcp -e 1040 -c 1 -i 47 -a 1 -x {1.0 3.1 -1 ------- null}
+ -t 1.86224 -s 1 -d 2 -p tcp -e 1040 -c 1 -i 48 -a 1 -x {1.0 3.1 28 ------- null}
- -t 1.8664 -s 1 -d 2 -p tcp -e 1040 -c 1 -i 48 -a 1 -x {1.0 3.1 28 ------- null}
h -t 1.8664 -s 1 -d 2 -p tcp -e 1040 -c 1 -i 48 -a 1 -x {1.0 3.1 -1 ------- null}
r -t 1.8764 -s 1 -d 2 -p tcp -e 1040 -c 1 -i 47 -a 1 -x {1.0 3.1 27 ------- null}
+ -t 1.8764 -s 2 -d 3 -p tcp -e 1040 -c 1 -i 47 -a 1 -x {1.0 3.1 27 ------- null}
r -t 1.88056 -s 1 -d 2 -p tcp -e 1040 -c 1 -i 48 -a 1 -x {1.0 3.1 28 ------- null}
+ -t 1.88056 -s 2 -d 3 -p tcp -e 1040 -c 1 -i 48 -a 1 -x {1.0 3.1 28 ------- null}
- -t 1.91208 -s 2 -d 3 -p tcp -e 1040 -c 1 -i 27 -a 1 -x {1.0 3.1 15 ------- null}
h -t 1.91208 -s 2 -d 3 -p tcp -e 1040 -c 1 -i 27 -a 1 -x {1.0 3.1 -1 ------- null}
r -t 1.92208 -s 2 -d 3 -p tcp -e 1040 -c 1 -i 25 -a 1 -x {1.0 3.1 14 ------- null}
+ -t 1.92208 -s 3 -d 2 -p ack -e 40 -c 1 -i 49 -a 1 -x {3.1 1.0 14 ------- null}
- -t 1.92208 -s 3 -d 2 -p ack -e 40 -c 1 -i 49 -a 1 -x {3.1 1.0 14 ------- null}
h -t 1.92208 -s 3 -d 2 -p ack -e 40 -c 1 -i 49 -a 1 -x {3.1 1.0 -1 ------- null}
r -t 1.93528 -s 3 -d 2 -p ack -e 40 -c 1 -i 49 -a 1 -x {3.1 1.0 14 ------- null}
+ -t 1.93528 -s 2 -d 1 -p ack -e 40 -c 1 -i 49 -a 1 -x {3.1 1.0 14 ------- null}
- -t 1.93528 -s 2 -d 1 -p ack -e 40 -c 1 -i 49 -a 1 -x {3.1 1.0 14 ------- null}
h -t 1.93528 -s 2 -d 1 -p ack -e 40 -c 1 -i 49 -a 1 -x {3.1 1.0 -1 ------- null}
r -t 1.94544 -s 2 -d 1 -p ack -e 40 -c 1 -i 49 -a 1 -x {3.1 1.0 14 ------- null}
+ -t 1.94544 -s 1 -d 2 -p tcp -e 1040 -c 1 -i 50 -a 1 -x {1.0 3.1 29 ------- null}
- -t 1.94544 -s 1 -d 2 -p tcp -e 1040 -c 1 -i 50 -a 1 -x {1.0 3.1 29 ------- null}
h -t 1.94544 -s 1 -d 2 -p tcp -e 1040 -c 1 -i 50 -a 1 -x {1.0 3.1 -1 ------- null}
+ -t 1.94544 -s 1 -d 2 -p tcp -e 1040 -c 1 -i 51 -a 1 -x {1.0 3.1 30 ------- null}
- -t 1.9496 -s 1 -d 2 -p tcp -e 1040 -c 1 -i 51 -a 1 -x {1.0 3.1 30 ------- null}
h -t 1.9496 -s 1 -d 2 -p tcp -e 1040 -c 1 -i 51 -a 1 -x {1.0 3.1 -1 ------- null}
r -t 1.9596 -s 1 -d 2 -p tcp -e 1040 -c 1 -i 50 -a 1 -x {1.0 3.1 29 ------- null}
+ -t 1.9596 -s 2 -d 3 -p tcp -e 1040 -c 1 -i 50 -a 1 -x {1.0 3.1 29 ------- null}