+ 0.6 1 2 tcp 40 ------- 1 1.0 3.1 0 0
- 0.6 1 2 tcp 40 ------- 1 1.0 3.1 0 0
r 0.61016 1 2 tcp 40 ------- 1 1.0 3.1 0 0
+ 0.61016 2 3 tcp 40 ------- 1 1.0 3.1 0 0
- 0.61016 2 3 tcp 40 ------- 1 1.0 3.1 0 0
r 0.62336 2 3 tcp 40 ------- 1 1.0 3.1 0 0
+ 0.62336 3 2 ack 40 ------- 1 3.1 1.0 0 1
- 0.62336 3 2 ack 40 ------- 1 3.1 1.0 0 1
r 0.63656 3 2 ack 40 ------- 1 3.1 1.0 0 1
+ 0.63656 2 1 ack 40 ------- 1 3.1 1.0 0 1
- 0.63656 2 1 ack 40 ------- 1 3.1 1.0 0 1
r 0.64672 2 1 ack 40 ------- 1 3.1 1.0 0 1
+ 0.64672 1 2 tcp 1040 ------- 1 1.0 3.1 1 2
- 0.64672 1 2 tcp 1040 ------- 1 1.0 3.1 1 2
+ 0.64672 1 2 tcp 1040 ------- 1 1.0 3.1 2 3
- 0.65088 1 2 tcp 1040 ------- 1 1.0 3.1 2 3
r 0.66088 1 2 tcp 1040 ------- 1 1.0 3.1 1 2
+ 0.66088 2 3 tcp 1040 ------- 1 1.0 3.1 1 2
- 0.66088 2 3 tcp 1040 ------- 1 1.0 3.1 1 2
r 0.66504 1 2 tcp 1040 ------- 1 1.0 3.1 2 3
+ 0.66504 2 3 tcp 1040 ------- 1 1.0 3.1 2 3
+ 0.70779 0 2 tcp 40 ------- 0 0.0 3.0 0 4
- 0.70779 0 2 tcp 40 ------- 0 0.0 3.0 0 4
r 0.71795 0 2 tcp 40 ------- 0 0.0 3.0 0 4
+ 0.71795 2 3 tcp 40 ------- 0 0.0 3.0 0 4
- 0.74408 2 3 tcp 1040 ------- 1 1.0 3.1 2 3
r 0.75408 2 3 tcp 1040 ------- 1 1.0 3.1 1 2
+ 0.75408 3 2 ack 40 ------- 1 3.1 1.0 1 5
- 0.75408 3 2 ack 40 ------- 1 3.1 1.0 1 5
r 0.76728 3 2 ack 40 ------- 1 3.1 1.0 1 5
+ 0.76728 2 1 ack 40 ------- 1 3.1 1.0 1 5
- 0.76728 2 1 ack 40 ------- 1 3.1 1.0 1 5
r 0.77744 2 1 ack 40 ------- 1 3.1 1.0 1 5
+ 0.77744 1 2 tcp 1040 ------- 1 1.0 3.1 3 6
- 0.77744 1 2 tcp 1040 ------- 1 1.0 3.1 3 6
+ 0.77744 1 2 tcp 1040 ------- 1 1.0 3.1 4 7
- 0.7816 1 2 tcp 1040 ------- 1 1.0 3.1 4 7
r 0.7916 1 2 tcp 1040 ------- 1 1.0 3.1 3 6
+ 0.7916 2 3 tcp 1040 ------- 1 1.0 3.1 3 6
r 0.79576 1 2 tcp 1040 ------- 1 1.0 3.1 4 7
+ 0.79576 2 3 tcp 1040 ------- 1 1.0 3.1 4 7
- 0.82728 2 3 tcp 40 ------- 0 0.0 3.0 0 4
- 0.83048 2 3 tcp 1040 ------- 1 1.0 3.1 3 6
r 0.83728 2 3 tcp 1040 ------- 1 1.0 3.1 2 3
+ 0.83728 3 2 ack 40 ------- 1 3.1 1.0 2 8
- 0.83728 3 2 ack 40 ------- 1 3.1 1.0 2 8
r 0.84048 2 3 tcp 40 ------- 0 0.0 3.0 0 4
+ 0.84048 3 2 ack 40 ------- 0 3.0 0.0 0 9
- 0.84048 3 2 ack 40 ------- 0 3.0 0.0 0 9
r 0.85048 3 2 ack 40 ------- 1 3.1 1.0 2 8
+ 0.85048 2 1 ack 40 ------- 1 3.1 1.0 2 8
- 0.85048 2 1 ack 40 ------- 1 3.1 1.0 2 8
r 0.85368 3 2 ack 40 ------- 0 3.0 0.0 0 9
+ 0.85368 2 0 ack 40 ------- 0 3.0 0.0 0 9
- 0.85368 2 0 ack 40 ------- 0 3.0 0.0 0 9
r 0.86064 2 1 ack 40 ------- 1 3.1 1.0 2 8
+ 0.86064 1 2 tcp 1040 ------- 1 1.0 3.1 5 10
- 0.86064 1 2 tcp 1040 ------- 1 1.0 3.1 5 10
+ 0.86064 1 2 tcp 1040 ------- 1 1.0 3.1 6 11
r 0.86384 2 0 ack 40 ------- 0 3.0 0.0 0 9
+ 0.86384 0 2 tcp 1040 ------- 0 0.0 3.0 1 12
- 0.86384 0 2 tcp 1040 ------- 0 0.0 3.0 1 12
- 0.8648 1 2 tcp 1040 ------- 1 1.0 3.1 6 11
r 0.8748 1 2 tcp 1040 ------- 1 1.0 3.1 5 10
+ 0.8748 2 3 tcp 1040 ------- 1 1.0 3.1 5 10
r 0.878 0 2 tcp 1040 ------- 0 0.0 3.0 1 12
+ 0.878 2 3 tcp 1040 ------- 0 0.0 3.0 1 12
r 0.87896 1 2 tcp 1040 ------- 1 1.0 3.1 6 11
+ 0.87896 2 3 tcp 1040 ------- 1 1.0 3.1 6 11
- 0.91368 2 3 tcp 1040 ------- 1 1.0 3.1 4 7
r 0.92368 2 3 tcp 1040 ------- 1 1.0 3.1 3 6
+ 0.92368 3 2 ack 40 ------- 1 3.1 1.0 3 13
- 0.92368 3 2 ack 40 ------- 1 3.1 1.0 3 13
r 0.93688 3 2 ack 40 ------- 1 3.1 1.0 3 13
+ 0.93688 2 1 ack 40 ------- 1 3.1 1.0 3 13
- 0.93688 2 1 ack 40 ------- 1 3.1 1.0 3 13
r 0.94704 2 1 ack 40 ------- 1 3.1 1.0 3 13
+ 0.94704 1 2 tcp 1040 ------- 1 1.0 3.1 7 14
- 0.94704 1 2 tcp 1040 ------- 1 1.0 3.1 7 14
+ 0.94704 1 2 tcp 1040 ------- 1 1.0 3.1 8 15
- 0.9512 1 2 tcp 1040 ------- 1 1.0 3.1 8 15
r 0.9612 1 2 tcp 1040 ------- 1 1.0 3.1 7 14
+ 0.9612 2 3 tcp 1040 ------- 1 1.0 3.1 7 14
r 0.96536 1 2 tcp 1040 ------- 1 1.0 3.1 8 15
+ 0.96536 2 3 tcp 1040 ------- 1 1.0 3.1 8 15
- 0.99688 2 3 tcp 1040 ------- 1 1.0 3.1 5 10
r 1.00688 2 3 tcp 1040 ------- 1 1.0 3.1 4 7
+ 1.00688 3 2 ack 40 ------- 1 3.1 1.0 4 16
- 1.00688 3 2 ack 40 ------- 1 3.1 1.0 4 16
r 1.02008 3 2 ack 40 ------- 1 3.1 1.0 4 16
+ 1.02008 2 1 ack 40 ------- 1 3.1 1.0 4 16
- 1.02008 2 1 ack 40 ------- 1 3.1 1.0 4 16
r 1.03024 2 1 ack 40 ------- 1 3.1 1.0 4 16
+ 1.03024 1 2 tcp 1040 ------- 1 1.0 3.1 9 17
- 1.03024 1 2 tcp 1040 ------- 1 1.0 3.1 9 17
+ 1.03024 1 2 tcp 1040 ------- 1 1.0 3.1 10 18
- 1.0344 1 2 tcp 1040 ------- 1 1.0 3.1 10 18
r 1.0444 1 2 tcp 1040 ------- 1 1.0 3.1 9 17
+ 1.0444 2 3 tcp 1040 ------- 1 1.0 3.1 9 17
r 1.04856 1 2 tcp 1040 ------- 1 1.0 3.1 10 18
+ 1.04856 2 3 tcp 1040 ------- 1 1.0 3.1 10 18
- 1.08008 2 3 tcp 1040 ------- 0 0.0 3.0 1 12
r 1.09008 2 3 tcp 1040 ------- 1 1.0 3.1 5 10
+ 1.09008 3 2 ack 40 ------- 1 3.1 1.0 5 19
- 1.09008 3 2 ack 40 ------- 1 3.1 1.0 5 19
r 1.10328 3 2 ack 40 ------- 1 3.1 1.0 5 19
+ 1.10328 2 1 ack 40 ------- 1 3.1 1.0 5 19
- 1.10328 2 1 ack 40 ------- 1 3.1 1.0 5 19
r 1.11344 2 1 ack 40 ------- 1 3.1 1.0 5 19
+ 1.11344 1 2 tcp 1040 ------- 1 1.0 3.1 11 20
- 1.11344 1 2 tcp 1040 ------- 1 1.0 3.1 11 20
+ 1.11344 1 2 tcp 1040 ------- 1 1.0 3.1 12 21
- 1.1176 1 2 tcp 1040 ------- 1 1.0 3.1 12 21
r 1.1276 1 2 tcp 1040 ------- 1 1.0 3.1 11 20
+ 1.1276 2 3 tcp 1040 ------- 1 1.0 3.1 11 20
r 1.13176 1 2 tcp 1040 ------- 1 1.0 3.1 12 21
+ 1.13176 2 3 tcp 1040 ------- 1 1.0 3.1 12 21
- 1.16328 2 3 tcp 1040 ------- 1 1.0 3.1 6 11
r 1.17328 2 3 tcp 1040 ------- 0 0.0 3.0 1 12
+ 1.17328 3 2 ack 40 ------- 0 3.0 0.0 1 22
- 1.17328 3 2 ack 40 ------- 0 3.0 0.0 1 22
r 1.18648 3 2 ack 40 ------- 0 3.0 0.0 1 22
+ 1.18648 2 0 ack 40 ------- 0 3.0 0.0 1 22
- 1.18648 2 0 ack 40 ------- 0 3.0 0.0 1 22
r 1.19664 2 0 ack 40 ------- 0 3.0 0.0 1 22
- 1.24648 2 3 tcp 1040 ------- 1 1.0 3.1 7 14
r 1.25648 2 3 tcp 1040 ------- 1 1.0 3.1 6 11
+ 1.25648 3 2 ack 40 ------- 1 3.1 1.0 6 23
- 1.25648 3 2 ack 40 ------- 1 3.1 1.0 6 23
r 1.26968 3 2 ack 40 ------- 1 3.1 1.0 6 23
+ 1.26968 2 1 ack 40 ------- 1 3.1 1.0 6 23
- 1.26968 2 1 ack 40 ------- 1 3.1 1.0 6 23
r 1.27984 2 1 ack 40 ------- 1 3.1 1.0 6 23
+ 1.27984 1 2 tcp 1040 ------- 1 1.0 3.1 13 24
- 1.27984 1 2 tcp 1040 ------- 1 1.0 3.1 13 24
+ 1.27984 1 2 tcp 1040 ------- 1 1.0 3.1 14 25
- 1.284 1 2 tcp 1040 ------- 1 1.0 3.1 14 25
r 1.294 1 2 tcp 1040 ------- 1 1.0 3.1 13 24
+ 1.294 2 3 tcp 1040 ------- 1 1.0 3.1 13 24
r 1.29816 1 2 tcp 1040 ------- 1 1.0 3.1 14 25
+ 1.29816 2 3 tcp 1040 ------- 1 1.0 3.1 14 25
- 1.32968 2 3 tcp 1040 ------- 1 1.0 3.1 8 15
r 1.33968 2 3 tcp 1040 ------- 1 1.0 3.1 7 14
+ 1.33968 3 2 ack 40 ------- 1 3.1 1.0 7 26
- 1.33968 3 2 ack 40 ------- 1 3.1 1.0 7 26
r 1.35288 3 2 ack 40 ------- 1 3.1 1.0 7 26
+ 1.35288 2 1 ack 40 ------- 1 3.1 1.0 7 26
- 1.35288 2 1 ack 40 ------- 1 3.1 1.0 7 26
r 1.36304 2 1 ack 40 ------- 1 3.1 1.0 7 26
+ 1.36304 1 2 tcp 1040 ------- 1 1.0 3.1 15 27
- 1.36304 1 2 tcp 1040 ------- 1 1.0 3.1 15 27
+ 1.36304 1 2 tcp 1040 ------- 1 1.0 3.1 16 28
- 1.3672 1 2 tcp 1040 ------- 1 1.0 3.1 16 28
r 1.3772 1 2 tcp 1040 ------- 1 1.0 3.1 15 27
+ 1.3772 2 3 tcp 1040 ------- 1 1.0 3.1 15 27
r 1.38136 1 2 tcp 1040 ------- 1 1.0 3.1 16 28
+ 1.38136 2 3 tcp 1040 ------- 1 1.0 3.1 16 28
- 1.41288 2 3 tcp 1040 ------- 1 1.0 3.1 9 17
r 1.42288 2 3 tcp 1040 ------- 1 1.0 3.1 8 15
+ 1.42288 3 2 ack 40 ------- 1 3.1 1.0 8 29
- 1.42288 3 2 ack 40 ------- 1 3.1 1.0 8 29
+ 1.431391 0 2 tcp 1040 ------- 0 0.0 3.0 2 30
- 1.431391 0 2 tcp 1040 ------- 0 0.0 3.0 2 30
r 1.43608 3 2 ack 40 ------- 1 3.1 1.0 8 29
+ 1.43608 2 1 ack 40 ------- 1 3.1 1.0 8 29
- 1.43608 2 1 ack 40 ------- 1 3.1 1.0 8 29
r 1.445551 0 2 tcp 1040 ------- 0 0.0 3.0 2 30
+ 1.445551 2 3 tcp 1040 ------- 0 0.0 3.0 2 30
r 1.44624 2 1 ack 40 ------- 1 3.1 1.0 8 29
+ 1.44624 1 2 tcp 1040 ------- 1 1.0 3.1 17 31
- 1.44624 1 2 tcp 1040 ------- 1 1.0 3.1 17 31
+ 1.44624 1 2 tcp 1040 ------- 1 1.0 3.1 18 32
- 1.4504 1 2 tcp 1040 ------- 1 1.0 3.1 18 32
r 1.4604 1 2 tcp 1040 ------- 1 1.0 3.1 17 31
+ 1.4604 2 3 tcp 1040 ------- 1 1.0 3.1 17 31
r 1.46456 1 2 tcp 1040 ------- 1 1.0 3.1 18 32
+ 1.46456 2 3 tcp 1040 ------- 1 1.0 3.1 18 32
- 1.49608 2 3 tcp 1040 ------- 1 1.0 3.1 10 18
r 1.50608 2 3 tcp 1040 ------- 1 1.0 3.1 9 17
+ 1.50608 3 2 ack 40 ------- 1 3.1 1.0 9 33
- 1.50608 3 2 ack 40 ------- 1 3.1 1.0 9 33
r 1.51928 3 2 ack 40 ------- 1 3.1 1.0 9 33
+ 1.51928 2 1 ack 40 ------- 1 3.1 1.0 9 33
- 1.51928 2 1 ack 40 ------- 1 3.1 1.0 9 33
r 1.52944 2 1 ack 40 ------- 1 3.1 1.0 9 33
+ 1.52944 1 2 tcp 1040 ------- 1 1.0 3.1 19 34
- 1.52944 1 2 tcp 1040 ------- 1 1.0 3.1 19 34
+ 1.52944 1 2 tcp 1040 ------- 1 1.0 3.1 20 35
- 1.5336 1 2 tcp 1040 ------- 1 1.0 3.1 20 35
r 1.5436 1 2 tcp 1040 ------- 1 1.0 3.1 19 34
+ 1.5436 2 3 tcp 1040 ------- 1 1.0 3.1 19 34
r 1.54776 1 2 tcp 1040 ------- 1 1.0 3.1 20 35
+ 1.54776 2 3 tcp 1040 ------- 1 1.0 3.1 20 35
- 1.57928 2 3 tcp 1040 ------- 1 1.0 3.1 11 20
r 1.58928 2 3 tcp 1040 ------- 1 1.0 3.1 10 18
+ 1.58928 3 2 ack 40 ------- 1 3.1 1.0 10 36
- 1.58928 3 2 ack 40 ------- 1 3.1 1.0 10 36
+ 1.591713 0 2 tcp 1040 ------- 0 0.0 3.0 3 37
- 1.591713 0 2 tcp 1040 ------- 0 0.0 3.0 3 37
r 1.60248 3 2 ack 40 ------- 1 3.1 1.0 10 36
+ 1.60248 2 1 ack 40 ------- 1 3.1 1.0 10 36
- 1.60248 2 1 ack 40 ------- 1 3.1 1.0 10 36
r 1.605873 0 2 tcp 1040 ------- 0 0.0 3.0 3 37
+ 1.605873 2 3 tcp 1040 ------- 0 0.0 3.0 3 37
r 1.61264 2 1 ack 40 ------- 1 3.1 1.0 10 36
+ 1.61264 1 2 tcp 1040 ------- 1 1.0 3.1 21 38
- 1.61264 1 2 tcp 1040 ------- 1 1.0 3.1 21 38
+ 1.61264 1 2 tcp 1040 ------- 1 1.0 3.1 22 39
- 1.6168 1 2 tcp 1040 ------- 1 1.0 3.1 22 39
r 1.6268 1 2 tcp 1040 ------- 1 1.0 3.1 21 38
+ 1.6268 2 3 tcp 1040 ------- 1 1.0 3.1 21 38
r 1.63096 1 2 tcp 1040 ------- 1 1.0 3.1 22 39
+ 1.63096 2 3 tcp 1040 ------- 1 1.0 3.1 22 39
- 1.66248 2 3 tcp 1040 ------- 1 1.0 3.1 12 21
r 1.67248 2 3 tcp 1040 ------- 1 1.0 3.1 11 20
+ 1.67248 3 2 ack 40 ------- 1 3.1 1.0 11 40
- 1.67248 3 2 ack 40 ------- 1 3.1 1.0 11 40
r 1.68568 3 2 ack 40 ------- 1 3.1 1.0 11 40
+ 1.68568 2 1 ack 40 ------- 1 3.1 1.0 11 40
- 1.68568 2 1 ack 40 ------- 1 3.1 1.0 11 40
r 1.69584 2 1 ack 40 ------- 1 3.1 1.0 11 40
+ 1.69584 1 2 tcp 1040 ------- 1 1.0 3.1 23 41
- 1.69584 1 2 tcp 1040 ------- 1 1.0 3.1 23 41
+ 1.69584 1 2 tcp 1040 ------- 1 1.0 3.1 24 42
- 1.7 1 2 tcp 1040 ------- 1 1.0 3.1 24 42
r 1.71 1 2 tcp 1040 ------- 1 1.0 3.1 23 41
+ 1.71 2 3 tcp 1040 ------- 1 1.0 3.1 23 41
r 1.71416 1 2 tcp 1040 ------- 1 1.0 3.1 24 42
+ 1.71416 2 3 tcp 1040 ------- 1 1.0 3.1 24 42
- 1.74568 2 3 tcp 1040 ------- 1 1.0 3.1 13 24
r 1.75568 2 3 tcp 1040 ------- 1 1.0 3.1 12 21
+ 1.75568 3 2 ack 40 ------- 1 3.1 1.0 12 43
- 1.75568 3 2 ack 40 ------- 1 3.1 1.0 12 43
r 1.76888 3 2 ack 40 ------- 1 3.1 1.0 12 43
+ 1.76888 2 1 ack 40 ------- 1 3.1 1.0 12 43
- 1.76888 2 1 ack 40 ------- 1 3.1 1.0 12 43
r 1.77904 2 1 ack 40 ------- 1 3.1 1.0 12 43
+ 1.77904 1 2 tcp 1040 ------- 1 1.0 3.1 25 44
- 1.77904 1 2 tcp 1040 ------- 1 1.0 3.1 25 44
+ 1.77904 1 2 tcp 1040 ------- 1 1.0 3.1 26 45
- 1.7832 1 2 tcp 1040 ------- 1 1.0 3.1 26 45
r 1.7932 1 2 tcp 1040 ------- 1 1.0 3.1 25 44
+ 1.7932 2 3 tcp 1040 ------- 1 1.0 3.1 25 44
r 1.79736 1 2 tcp 1040 ------- 1 1.0 3.1 26 45
+ 1.79736 2 3 tcp 1040 ------- 1 1.0 3.1 26 45
- 1.82888 2 3 tcp 1040 ------- 1 1.0 3.1 14 25
r 1.83888 2 3 tcp 1040 ------- 1 1.0 3.1 13 24
+ 1.83888 3 2 ack 40 ------- 1 3.1 1.0 13 46
- 1.83888 3 2 ack 40 ------- 1 3.1 1.0 13 46
r 1.85208 3 2 ack 40 ------- 1 3.1 1.0 13 46
+ 1.85208 2 1 ack 40 ------- 1 3.1 1.0 13 46
- 1.85208 2 1 ack 40 ------- 1 3.1 1.0 13 46
r 1.86224 2 1 ack 40 ------- 1 3.1 1.0 13 46
+ 1.86224 1 2 tcp 1040 ------- 1 1.0 3.1 27 47
- 1.86224 1 2 tcp 1040 ------- 1 1.0 3.1 27 47
+ 1.86224 1 2 tcp 1040 ------- 1 1.0 3.1 28 48
- 1.8664 1 2 tcp 1040 ------- 1 1.0 3.1 28 48
r 1.8764 1 2 tcp 1040 ------- 1 1.0 3.1 27 47
+ 1.8764 2 3 tcp 1040 ------- 1 1.0 3.1 27 47
r 1.88056 1 2 tcp 1040 ------- 1 1.0 3.1 28 48
+ 1.88056 2 3 tcp 1040 ------- 1 1.0 3.1 28 48
- 1.91208 2 3 tcp 1040 ------- 1 1.0 3.1 15 27
r 1.92208 2 3 tcp 1040 ------- 1 1.0 3.1 14 25
+ 1.92208 3 2 ack 40 ------- 1 3.1 1.0 14 49
- 1.92208 3 2 ack 40 ------- 1 3.1 1.0 14 49
r 1.93528 3 2 ack 40 ------- 1 3.1 1.0 14 49
+ 1.93528 2 1 ack 40 ------- 1 3.1 1.0 14 49
- 1.93528 2 1 ack 40 ------- 1 3.1 1.0 14 49
r 1.94544 2 1 ack 40 ------- 1 3.1 1.0 14 49
+ 1.94544 1 2 tcp 1040 ------- 1 1.0 3.1 29 50
- 1.94544 1 2 tcp 1040 ------- 1 1.0 3.1 29 50
+ 1.94544 1 2 tcp 1040 ------- 1 1.0 3.1 30 51
- 1.9496 1 2 tcp 1040 ------- 1 1.0 3.1 30 51
r 1.9596 1 2 tcp 1040 ------- 1 1.0 3.1 29 50
+ 1.9596 2 3 tcp 1040 ------- 1 1.0 3.1 29 50
r 1.96376 1 2 tcp 1040 ------- 1 1.0 3.1 30 51
+ 1.96376 2 3 tcp 1040 ------- 1 1.0 3.1 30 51
- 1.99528 2 3 tcp 1040 ------- 1 1.0 3.1 16 28
r 2.00528 2 3 tcp 1040 ------- 1 1.0 3.1 15 27
+ 2.00528 3 2 ack 40 ------- 1 3.1 1.0 15 52
- 2.00528 3 2 ack 40 ------- 1 3.1 1.0 15 52
r 2.01848 3 2 ack 40 ------- 1 3.1 1.0 15 52
+ 2.01848 2 1 ack 40 ------- 1 3.1 1.0 15 52
- 2.01848 2 1 ack 40 ------- 1 3.1 1.0 15 52
+ 2.021391 0 2 tcp 1040 ---A--- 0 0.0 3.0 2 53
- 2.021391 0 2 tcp 1040 ---A--- 0 0.0 3.0 2 53
r 2.02864 2 1 ack 40 ------- 1 3.1 1.0 15 52
+ 2.02864 1 2 tcp 1040 ------- 1 1.0 3.1 31 54
- 2.02864 1 2 tcp 1040 ------- 1 1.0 3.1 31 54
+ 2.02864 1 2 tcp 1040 ------- 1 1.0 3.1 32 55
- 2.0328 1 2 tcp 1040 ------- 1 1.0 3.1 32 55
r 2.035551 0 2 tcp 1040 ---A--- 0 0.0 3.0 2 53
+ 2.035551 2 3 tcp 1040 ---A--- 0 0.0 3.0 2 53
r 2.0428 1 2 tcp 1040 ------- 1 1.0 3.1 31 54
+ 2.0428 2 3 tcp 1040 ------- 1 1.0 3.1 31 54
r 2.04696 1 2 tcp 1040 ------- 1 1.0 3.1 32 55
+ 2.04696 2 3 tcp 1040 ------- 1 1.0 3.1 32 55
- 2.07848 2 3 tcp 1040 ------- 0 0.0 3.0 2 30
r 2.08848 2 3 tcp 1040 ------- 1 1.0 3.1 16 28
+ 2.08848 3 2 ack 40 ------- 1 3.1 1.0 16 56
- 2.08848 3 2 ack 40 ------- 1 3.1 1.0 16 56
r 2.10168 3 2 ack 40 ------- 1 3.1 1.0 16 56
+ 2.10168 2 1 ack 40 ------- 1 3.1 1.0 16 56
- 2.10168 2 1 ack 40 ------- 1 3.1 1.0 16 56
r 2.11184 2 1 ack 40 ------- 1 3.1 1.0 16 56
+ 2.11184 1 2 tcp 1040 ------- 1 1.0 3.1 33 57
- 2.11184 1 2 tcp 1040 ------- 1 1.0 3.1 33 57
+ 2.11184 1 2 tcp 1040 ------- 1 1.0 3.1 34 58
- 2.116 1 2 tcp 1040 ------- 1 1.0 3.1 34 58
r 2.126 1 2 tcp 1040 ------- 1 1.0 3.1 33 57
+ 2.126 2 3 tcp 1040 ------- 1 1.0 3.1 33 57
r 2.13016 1 2 tcp 1040 ------- 1 1.0 3.1 34 58
+ 2.13016 2 3 tcp 1040 ------- 1 1.0 3.1 34 58
- 2.16168 2 3 tcp 1040 ------- 1 1.0 3.1 17 31
r 2.17168 2 3 tcp 1040 ------- 0 0.0 3.0 2 30
+ 2.17168 3 2 ack 40 ------- 0 3.0 0.0 2 59
- 2.17168 3 2 ack 40 ------- 0 3.0 0.0 2 59
r 2.18488 3 2 ack 40 ------- 0 3.0 0.0 2 59
+ 2.18488 2 0 ack 40 ------- 0 3.0 0.0 2 59
- 2.18488 2 0 ack 40 ------- 0 3.0 0.0 2 59
r 2.19504 2 0 ack 40 ------- 0 3.0 0.0 2 59
+ 2.19504 0 2 tcp 1040 ------- 0 0.0 3.0 3 60
- 2.19504 0 2 tcp 1040 ------- 0 0.0 3.0 3 60
r 2.2092 0 2 tcp 1040 ------- 0 0.0 3.0 3 60
+ 2.2092 2 3 tcp 1040 ------- 0 0.0 3.0 3 60
- 2.24488 2 3 tcp 1040 ------- 1 1.0 3.1 18 32
r 2.25488 2 3 tcp 1040 ------- 1 1.0 3.1 17 31
+ 2.25488 3 2 ack 40 ------- 1 3.1 1.0 17 61
- 2.25488 3 2 ack 40 ------- 1 3.1 1.0 17 61
r 2.26808 3 2 ack 40 ------- 1 3.1 1.0 17 61
+ 2.26808 2 1 ack 40 ------- 1 3.1 1.0 17 61
- 2.26808 2 1 ack 40 ------- 1 3.1 1.0 17 61
r 2.27824 2 1 ack 40 ------- 1 3.1 1.0 17 61
+ 2.27824 1 2 tcp 1040 ------- 1 1.0 3.1 35 62
- 2.27824 1 2 tcp 1040 ------- 1 1.0 3.1 35 62
+ 2.27824 1 2 tcp 1040 ------- 1 1.0 3.1 36 63
- 2.2824 1 2 tcp 1040 ------- 1 1.0 3.1 36 63
r 2.2924 1 2 tcp 1040 ------- 1 1.0 3.1 35 62
+ 2.2924 2 3 tcp 1040 ------- 1 1.0 3.1 35 62
r 2.29656 1 2 tcp 1040 ------- 1 1.0 3.1 36 63
+ 2.29656 2 3 tcp 1040 ------- 1 1.0 3.1 36 63
- 2.32808 2 3 tcp 1040 ------- 1 1.0 3.1 19 34
r 2.33808 2 3 tcp 1040 ------- 1 1.0 3.1 18 32
+ 2.33808 3 2 ack 40 ------- 1 3.1 1.0 18 64
- 2.33808 3 2 ack 40 ------- 1 3.1 1.0 18 64
r 2.35128 3 2 ack 40 ------- 1 3.1 1.0 18 64
+ 2.35128 2 1 ack 40 ------- 1 3.1 1.0 18 64
- 2.35128 2 1 ack 40 ------- 1 3.1 1.0 18 64
r 2.36144 2 1 ack 40 ------- 1 3.1 1.0 18 64
+ 2.36144 1 2 tcp 1040 ------- 1 1.0 3.1 37 65
- 2.36144 1 2 tcp 1040 ------- 1 1.0 3.1 37 65
+ 2.36144 1 2 tcp 1040 ------- 1 1.0 3.1 38 66
- 2.3656 1 2 tcp 1040 ------- 1 1.0 3.1 38 66
r 2.3756 1 2 tcp 1040 ------- 1 1.0 3.1 37 65
+ 2.3756 2 3 tcp 1040 ------- 1 1.0 3.1 37 65
r 2.37976 1 2 tcp 1040 ------- 1 1.0 3.1 38 66
+ 2.37976 2 3 tcp 1040 ------- 1 1.0 3.1 38 66
+ 2.398436 0 2 tcp 1040 ------- 0 0.0 3.0 4 67
- 2.398436 0 2 tcp 1040 ------- 0 0.0 3.0 4 67
- 2.41128 2 3 tcp 1040 ------- 1 1.0 3.1 20 35
r 2.412596 0 2 tcp 1040 ------- 0 0.0 3.0 4 67
+ 2.412596 2 3 tcp 1040 ------- 0 0.0 3.0 4 67
r 2.42128 2 3 tcp 1040 ------- 1 1.0 3.1 19 34
+ 2.42128 3 2 ack 40 ------- 1 3.1 1.0 19 68
- 2.42128 3 2 ack 40 ------- 1 3.1 1.0 19 68
r 2.43448 3 2 ack 40 ------- 1 3.1 1.0 19 68
+ 2.43448 2 1 ack 40 ------- 1 3.1 1.0 19 68
- 2.43448 2 1 ack 40 ------- 1 3.1 1.0 19 68
r 2.44464 2 1 ack 40 ------- 1 3.1 1.0 19 68
+ 2.44464 1 2 tcp 1040 ------- 1 1.0 3.1 39 69
- 2.44464 1 2 tcp 1040 ------- 1 1.0 3.1 39 69
r 2.4588 1 2 tcp 1040 ------- 1 1.0 3.1 39 69
+ 2.4588 2 3 tcp 1040 ------- 1 1.0 3.1 39 69
- 2.49448 2 3 tcp 1040 ------- 0 0.0 3.0 3 37
r 2.50448 2 3 tcp 1040 ------- 1 1.0 3.1 20 35
+ 2.50448 3 2 ack 40 ------- 1 3.1 1.0 20 70
- 2.50448 3 2 ack 40 ------- 1 3.1 1.0 20 70
r 2.51768 3 2 ack 40 ------- 1 3.1 1.0 20 70
+ 2.51768 2 1 ack 40 ------- 1 3.1 1.0 20 70
- 2.51768 2 1 ack 40 ------- 1 3.1 1.0 20 70
r 2.52784 2 1 ack 40 ------- 1 3.1 1.0 20 70
+ 2.52784 1 2 tcp 1040 ------- 1 1.0 3.1 40 71
- 2.52784 1 2 tcp 1040 ------- 1 1.0 3.1 40 71
r 2.542 1 2 tcp 1040 ------- 1 1.0 3.1 40 71
+ 2.542 2 3 tcp 1040 ------- 1 1.0 3.1 40 71
- 2.57768 2 3 tcp 1040 ------- 1 1.0 3.1 21 38
r 2.58768 2 3 tcp 1040 ------- 0 0.0 3.0 3 37
+ 2.58768 3 2 ack 40 ------- 0 3.0 0.0 3 72
- 2.58768 3 2 ack 40 ------- 0 3.0 0.0 3 72
r 2.60088 3 2 ack 40 ------- 0 3.0 0.0 3 72
+ 2.60088 2 0 ack 40 ------- 0 3.0 0.0 3 72
- 2.60088 2 0 ack 40 ------- 0 3.0 0.0 3 72
r 2.61104 2 0 ack 40 ------- 0 3.0 0.0 3 72
+ 2.61104 0 2 tcp 1040 ------- 0 0.0 3.0 5 73
- 2.61104 0 2 tcp 1040 ------- 0 0.0 3.0 5 73
r 2.6252 0 2 tcp 1040 ------- 0 0.0 3.0 5 73
+ 2.6252 2 3 tcp 1040 ------- 0 0.0 3.0 5 73
- 2.66088 2 3 tcp 1040 ------- 1 1.0 3.1 22 39
r 2.67088 2 3 tcp 1040 ------- 1 1.0 3.1 21 38
+ 2.67088 3 2 ack 40 ------- 1 3.1 1.0 21 74
- 2.67088 3 2 ack 40 ------- 1 3.1 1.0 21 74
r 2.68408 3 2 ack 40 ------- 1 3.1 1.0 21 74
+ 2.68408 2 1 ack 40 ------- 1 3.1 1.0 21 74
- 2.68408 2 1 ack 40 ------- 1 3.1 1.0 21 74
r 2.69424 2 1 ack 40 ------- 1 3.1 1.0 21 74
+ 2.69424 1 2 tcp 1040 ------- 1 1.0 3.1 41 75
- 2.69424 1 2 tcp 1040 ------- 1 1.0 3.1 41 75
r 2.7084 1 2 tcp 1040 ------- 1 1.0 3.1 41 75
+ 2.7084 2 3 tcp 1040 ------- 1 1.0 3.1 41 75
- 2.74408 2 3 tcp 1040 ------- 1 1.0 3.1 23 41
r 2.75408 2 3 tcp 1040 ------- 1 1.0 3.1 22 39
+ 2.75408 3 2 ack 40 ------- 1 3.1 1.0 22 76
- 2.75408 3 2 ack 40 ------- 1 3.1 1.0 22 76
r 2.76728 3 2 ack 40 ------- 1 3.1 1.0 22 76
+ 2.76728 2 1 ack 40 ------- 1 3.1 1.0 22 76
- 2.76728 2 1 ack 40 ------- 1 3.1 1.0 22 76
r 2.77744 2 1 ack 40 ------- 1 3.1 1.0 22 76
+ 2.77744 1 2 tcp 1040 ------- 1 1.0 3.1 42 77
- 2.77744 1 2 tcp 1040 ------- 1 1.0 3.1 42 77
r 2.7916 1 2 tcp 1040 ------- 1 1.0 3.1 42 77
+ 2.7916 2 3 tcp 1040 ------- 1 1.0 3.1 42 77
- 2.82728 2 3 tcp 1040 ------- 1 1.0 3.1 24 42
r 2.83728 2 3 tcp 1040 ------- 1 1.0 3.1 23 41
+ 2.83728 3 2 ack 40 ------- 1 3.1 1.0 23 78
- 2.83728 3 2 ack 40 ------- 1 3.1 1.0 23 78
r 2.85048 3 2 ack 40 ------- 1 3.1 1.0 23 78
+ 2.85048 2 1 ack 40 ------- 1 3.1 1.0 23 78
- 2.85048 2 1 ack 40 ------- 1 3.1 1.0 23 78
r 2.86064 2 1 ack 40 ------- 1 3.1 1.0 23 78
+ 2.86064 1 2 tcp 1040 ------- 1 1.0 3.1 43 79
- 2.86064 1 2 tcp 1040 ------- 1 1.0 3.1 43 79
r 2.8748 1 2 tcp 1040 ------- 1 1.0 3.1 43 79
+ 2.8748 2 3 tcp 1040 ------- 1 1.0 3.1 43 79
- 2.91048 2 3 tcp 1040 ------- 1 1.0 3.1 25 44
r 2.92048 2 3 tcp 1040 ------- 1 1.0 3.1 24 42
+ 2.92048 3 2 ack 40 ------- 1 3.1 1.0 24 80
- 2.92048 3 2 ack 40 ------- 1 3.1 1.0 24 80
r 2.93368 3 2 ack 40 ------- 1 3.1 1.0 24 80
+ 2.93368 2 1 ack 40 ------- 1 3.1 1.0 24 80
- 2.93368 2 1 ack 40 ------- 1 3.1 1.0 24 80
r 2.94384 2 1 ack 40 ------- 1 3.1 1.0 24 80
+ 2.94384 1 2 tcp 1040 ------- 1 1.0 3.1 44 81
- 2.94384 1 2 tcp 1040 ------- 1 1.0 3.1 44 81
r 2.958 1 2 tcp 1040 ------- 1 1.0 3.1 44 81
+ 2.958 2 3 tcp 1040 ------- 1 1.0 3.1 44 81
- 2.99368 2 3 tcp 1040 ------- 1 1.0 3.1 26 45
r 3.00368 2 3 tcp 1040 ------- 1 1.0 3.1 25 44
+ 3.00368 3 2 ack 40 ------- 1 3.1 1.0 25 82
- 3.00368 3 2 ack 40 ------- 1 3.1 1.0 25 82
r 3.01688 3 2 ack 40 ------- 1 3.1 1.0 25 82
+ 3.01688 2 1 ack 40 ------- 1 3.1 1.0 25 82
- 3.01688 2 1 ack 40 ------- 1 3.1 1.0 25 82
r 3.02704 2 1 ack 40 ------- 1 3.1 1.0 25 82
+ 3.02704 1 2 tcp 1040 ------- 1 1.0 3.1 45 83
- 3.02704 1 2 tcp 1040 ------- 1 1.0 3.1 45 83
r 3.0412 1 2 tcp 1040 ------- 1 1.0 3.1 45 83
+ 3.0412 2 3 tcp 1040 ------- 1 1.0 3.1 45 83
- 3.07688 2 3 tcp 1040 ------- 1 1.0 3.1 27 47
r 3.08688 2 3 tcp 1040 ------- 1 1.0 3.1 26 45
+ 3.08688 3 2 ack 40 ------- 1 3.1 1.0 26 84
- 3.08688 3 2 ack 40 ------- 1 3.1 1.0 26 84
r 3.10008 3 2 ack 40 ------- 1 3.1 1.0 26 84
+ 3.10008 2 1 ack 40 ------- 1 3.1 1.0 26 84
- 3.10008 2 1 ack 40 ------- 1 3.1 1.0 26 84
r 3.11024 2 1 ack 40 ------- 1 3.1 1.0 26 84
+ 3.11024 1 2 tcp 1040 ------- 1 1.0 3.1 46 85
- 3.11024 1 2 tcp 1040 ------- 1 1.0 3.1 46 85
r 3.1244 1 2 tcp 1040 ------- 1 1.0 3.1 46 85
+ 3.1244 2 3 tcp 1040 ------- 1 1.0 3.1 46 85
- 3.16008 2 3 tcp 1040 ------- 1 1.0 3.1 28 48
r 3.17008 2 3 tcp 1040 ------- 1 1.0 3.1 27 47
+ 3.17008 3 2 ack 40 ------- 1 3.1 1.0 27 86
- 3.17008 3 2 ack 40 ------- 1 3.1 1.0 27 86
r 3.18328 3 2 ack 40 ------- 1 3.1 1.0 27 86
+ 3.18328 2 1 ack 40 ------- 1 3.1 1.0 27 86
- 3.18328 2 1 ack 40 ------- 1 3.1 1.0 27 86
r 3.19344 2 1 ack 40 ------- 1 3.1 1.0 27 86
+ 3.19344 1 2 tcp 1040 ------- 1 1.0 3.1 47 87
- 3.19344 1 2 tcp 1040 ------- 1 1.0 3.1 47 87
r 3.2076 1 2 tcp 1040 ------- 1 1.0 3.1 47 87
+ 3.2076 2 3 tcp 1040 ------- 1 1.0 3.1 47 87
- 3.24328 2 3 tcp 1040 ------- 1 1.0 3.1 29 50
r 3.25328 2 3 tcp 1040 ------- 1 1.0 3.1 28 48
+ 3.25328 3 2 ack 40 ------- 1 3.1 1.0 28 88
- 3.25328 3 2 ack 40 ------- 1 3.1 1.0 28 88
r 3.26648 3 2 ack 40 ------- 1 3.1 1.0 28 88
+ 3.26648 2 1 ack 40 ------- 1 3.1 1.0 28 88
- 3.26648 2 1 ack 40 ------- 1 3.1 1.0 28 88
r 3.27664 2 1 ack 40 ------- 1 3.1 1.0 28 88
+ 3.27664 1 2 tcp 1040 ------- 1 1.0 3.1 48 89
- 3.27664 1 2 tcp 1040 ------- 1 1.0 3.1 48 89
r 3.2908 1 2 tcp 1040 ------- 1 1.0 3.1 48 89
+ 3.2908 2 3 tcp 1040 ------- 1 1.0 3.1 48 89
- 3.32648 2 3 tcp 1040 ------- 1 1.0 3.1 30 51
r 3.33648 2 3 tcp 1040 ------- 1 1.0 3.1 29 50
+ 3.33648 3 2 ack 40 ------- 1 3.1 1.0 29 90
- 3.33648 3 2 ack 40 ------- 1 3.1 1.0 29 90
r 3.34968 3 2 ack 40 ------- 1 3.1 1.0 29 90
+ 3.34968 2 1 ack 40 ------- 1 3.1 1.0 29 90
- 3.34968 2 1 ack 40 ------- 1 3.1 1.0 29 90
r 3.35984 2 1 ack 40 ------- 1 3.1 1.0 29 90
+ 3.35984 1 2 tcp 1040 ------- 1 1.0 3.1 49 91
- 3.35984 1 2 tcp 1040 ------- 1 1.0 3.1 49 91
r 3.374 1 2 tcp 1040 ------- 1 1.0 3.1 49 91
+ 3.374 2 3 tcp 1040 ------- 1 1.0 3.1 49 91
- 3.40968 2 3 tcp 1040 ---A--- 0 0.0 3.0 2 53
r 3.41968 2 3 tcp 1040 ------- 1 1.0 3.1 30 51
+ 3.41968 3 2 ack 40 ------- 1 3.1 1.0 30 92
- 3.41968 3 2 ack 40 ------- 1 3.1 1.0 30 92
r 3.43288 3 2 ack 40 ------- 1 3.1 1.0 30 92
+ 3.43288 2 1 ack 40 ------- 1 3.1 1.0 30 92
- 3.43288 2 1 ack 40 ------- 1 3.1 1.0 30 92
r 3.44304 2 1 ack 40 ------- 1 3.1 1.0 30 92
+ 3.44304 1 2 tcp 1040 ------- 1 1.0 3.1 50 93
- 3.44304 1 2 tcp 1040 ------- 1 1.0 3.1 50 93
r 3.4572 1 2 tcp 1040 ------- 1 1.0 3.1 50 93
+ 3.4572 2 3 tcp 1040 ------- 1 1.0 3.1 50 93
- 3.49288 2 3 tcp 1040 ------- 1 1.0 3.1 31 54
r 3.50288 2 3 tcp 1040 ---A--- 0 0.0 3.0 2 53
+ 3.50288 3 2 ack 40 ------- 0 3.0 0.0 3 94
- 3.50288 3 2 ack 40 ------- 0 3.0 0.0 3 94
r 3.51608 3 2 ack 40 ------- 0 3.0 0.0 3 94
+ 3.51608 2 0 ack 40 ------- 0 3.0 0.0 3 94
- 3.51608 2 0 ack 40 ------- 0 3.0 0.0 3 94
r 3.52624 2 0 ack 40 ------- 0 3.0 0.0 3 94
+ 3.52624 0 2 tcp 1040 ------- 0 0.0 3.0 6 95
- 3.52624 0 2 tcp 1040 ------- 0 0.0 3.0 6 95
r 3.5404 0 2 tcp 1040 ------- 0 0.0 3.0 6 95
+ 3.5404 2 3 tcp 1040 ------- 0 0.0 3.0 6 95
- 3.57608 2 3 tcp 1040 ------- 1 1.0 3.1 32 55
r 3.58608 2 3 tcp 1040 ------- 1 1.0 3.1 31 54
+ 3.58608 3 2 ack 40 ------- 1 3.1 1.0 31 96
- 3.58608 3 2 ack 40 ------- 1 3.1 1.0 31 96
r 3.59928 3 2 ack 40 ------- 1 3.1 1.0 31 96
+ 3.59928 2 1 ack 40 ------- 1 3.1 1.0 31 96
- 3.59928 2 1 ack 40 ------- 1 3.1 1.0 31 96
r 3.60944 2 1 ack 40 ------- 1 3.1 1.0 31 96
+ 3.60944 1 2 tcp 1040 ------- 1 1.0 3.1 51 97
- 3.60944 1 2 tcp 1040 ------- 1 1.0 3.1 51 97
r 3.6236 1 2 tcp 1040 ------- 1 1.0 3.1 51 97
+ 3.6236 2 3 tcp 1040 ------- 1 1.0 3.1 51 97
- 3.65928 2 3 tcp 1040 ------- 1 1.0 3.1 33 57
r 3.66928 2 3 tcp 1040 ------- 1 1.0 3.1 32 55
+ 3.66928 3 2 ack 40 ------- 1 3.1 1.0 32 98
- 3.66928 3 2 ack 40 ------- 1 3.1 1.0 32 98
r 3.68248 3 2 ack 40 ------- 1 3.1 1.0 32 98
+ 3.68248 2 1 ack 40 ------- 1 3.1 1.0 32 98
- 3.68248 2 1 ack 40 ------- 1 3.1 1.0 32 98
r 3.69264 2 1 ack 40 ------- 1 3.1 1.0 32 98
+ 3.69264 1 2 tcp 1040 ------- 1 1.0 3.1 52 99
- 3.69264 1 2 tcp 1040 ------- 1 1.0 3.1 52 99
r 3.7068 1 2 tcp 1040 ------- 1 1.0 3.1 52 99
+ 3.7068 2 3 tcp 1040 ------- 1 1.0 3.1 52 99
- 3.74248 2 3 tcp 1040 ------- 1 1.0 3.1 34 58
r 3.75248 2 3 tcp 1040 ------- 1 1.0 3.1 33 57
+ 3.75248 3 2 ack 40 ------- 1 3.1 1.0 33 100
- 3.75248 3 2 ack 40 ------- 1 3.1 1.0 33 100
r 3.76568 3 2 ack 40 ------- 1 3.1 1.0 33 100
+ 3.76568 2 1 ack 40 ------- 1 3.1 1.0 33 100
- 3.76568 2 1 ack 40 ------- 1 3.1 1.0 33 100
r 3.77584 2 1 ack 40 ------- 1 3.1 1.0 33 100
+ 3.77584 1 2 tcp 1040 ------- 1 1.0 3.1 53 101
- 3.77584 1 2 tcp 1040 ------- 1 1.0 3.1 53 101
r 3.79 1 2 tcp 1040 ------- 1 1.0 3.1 53 101
+ 3.79 2 3 tcp 1040 ------- 1 1.0 3.1 53 101
+ 3.79104 0 2 tcp 1040 ---A--- 0 0.0 3.0 4 102
- 3.79104 0 2 tcp 1040 ---A--- 0 0.0 3.0 4 102
r 3.8052 0 2 tcp 1040 ---A--- 0 0.0 3.0 4 102
+ 3.8052 2 3 tcp 1040 ---A--- 0 0.0 3.0 4 102
- 3.82568 2 3 tcp 1040 ------- 0 0.0 3.0 3 60
r 3.83568 2 3 tcp 1040 ------- 1 1.0 3.1 34 58
+ 3.83568 3 2 ack 40 ------- 1 3.1 1.0 34 103
- 3.83568 3 2 ack 40 ------- 1 3.1 1.0 34 103
r 3.84888 3 2 ack 40 ------- 1 3.1 1.0 34 103
+ 3.84888 2 1 ack 40 ------- 1 3.1 1.0 34 103
- 3.84888 2 1 ack 40 ------- 1 3.1 1.0 34 103
r 3.85904 2 1 ack 40 ------- 1 3.1 1.0 34 103
+ 3.85904 1 2 tcp 1040 ------- 1 1.0 3.1 54 104
- 3.85904 1 2 tcp 1040 ------- 1 1.0 3.1 54 104
r 3.8732 1 2 tcp 1040 ------- 1 1.0 3.1 54 104
+ 3.8732 2 3 tcp 1040 ------- 1 1.0 3.1 54 104
- 3.90888 2 3 tcp 1040 ------- 1 1.0 3.1 35 62
r 3.91888 2 3 tcp 1040 ------- 0 0.0 3.0 3 60
+ 3.91888 3 2 ack 40 ------- 0 3.0 0.0 3 105
- 3.91888 3 2 ack 40 ------- 0 3.0 0.0 3 105
r 3.93208 3 2 ack 40 ------- 0 3.0 0.0 3 105
+ 3.93208 2 0 ack 40 ------- 0 3.0 0.0 3 105
- 3.93208 2 0 ack 40 ------- 0 3.0 0.0 3 105
r 3.94224 2 0 ack 40 ------- 0 3.0 0.0 3 105
+ 3.94224 0 2 tcp 1040 ------- 0 0.0 3.0 5 106
- 3.94224 0 2 tcp 1040 ------- 0 0.0 3.0 5 106
r 3.9564 0 2 tcp 1040 ------- 0 0.0 3.0 5 106
+ 3.9564 2 3 tcp 1040 ------- 0 0.0 3.0 5 106
- 3.99208 2 3 tcp 1040 ------- 1 1.0 3.1 36 63
r 4.00208 2 3 tcp 1040 ------- 1 1.0 3.1 35 62
+ 4.00208 3 2 ack 40 ------- 1 3.1 1.0 35 107
- 4.00208 3 2 ack 40 ------- 1 3.1 1.0 35 107
r 4.01528 3 2 ack 40 ------- 1 3.1 1.0 35 107
+ 4.01528 2 1 ack 40 ------- 1 3.1 1.0 35 107
- 4.01528 2 1 ack 40 ------- 1 3.1 1.0 35 107
r 4.02544 2 1 ack 40 ------- 1 3.1 1.0 35 107
+ 4.02544 1 2 tcp 1040 ------- 1 1.0 3.1 55 108
- 4.02544 1 2 tcp 1040 ------- 1 1.0 3.1 55 108
r 4.0396 1 2 tcp 1040 ------- 1 1.0 3.1 55 108
+ 4.0396 2 3 tcp 1040 ------- 1 1.0 3.1 55 108
- 4.07528 2 3 tcp 1040 ------- 1 1.0 3.1 37 65
r 4.08528 2 3 tcp 1040 ------- 1 1.0 3.1 36 63
+ 4.08528 3 2 ack 40 ------- 1 3.1 1.0 36 109
- 4.08528 3 2 ack 40 ------- 1 3.1 1.0 36 109
r 4.09848 3 2 ack 40 ------- 1 3.1 1.0 36 109
+ 4.09848 2 1 ack 40 ------- 1 3.1 1.0 36 109
- 4.09848 2 1 ack 40 ------- 1 3.1 1.0 36 109
r 4.10864 2 1 ack 40 ------- 1 3.1 1.0 36 109
+ 4.10864 1 2 tcp 1040 ------- 1 1.0 3.1 56 110
- 4.10864 1 2 tcp 1040 ------- 1 1.0 3.1 56 110
r 4.1228 1 2 tcp 1040 ------- 1 1.0 3.1 56 110
+ 4.1228 2 3 tcp 1040 ------- 1 1.0 3.1 56 110
- 4.15848 2 3 tcp 1040 ------- 1 1.0 3.1 38 66
r 4.16848 2 3 tcp 1040 ------- 1 1.0 3.1 37 65
+ 4.16848 3 2 ack 40 ------- 1 3.1 1.0 37 111
- 4.16848 3 2 ack 40 ------- 1 3.1 1.0 37 111
r 4.18168 3 2 ack 40 ------- 1 3.1 1.0 37 111
+ 4.18168 2 1 ack 40 ------- 1 3.1 1.0 37 111
- 4.18168 2 1 ack 40 ------- 1 3.1 1.0 37 111
r 4.19184 2 1 ack 40 ------- 1 3.1 1.0 37 111
+ 4.19184 1 2 tcp 1040 ------- 1 1.0 3.1 57 112
- 4.19184 1 2 tcp 1040 ------- 1 1.0 3.1 57 112
r 4.206 1 2 tcp 1040 ------- 1 1.0 3.1 57 112
+ 4.206 2 3 tcp 1040 ------- 1 1.0 3.1 57 112
- 4.24168 2 3 tcp 1040 ------- 0 0.0 3.0 4 67
r 4.25168 2 3 tcp 1040 ------- 1 1.0 3.1 38 66
+ 4.25168 3 2 ack 40 ------- 1 3.1 1.0 38 113
- 4.25168 3 2 ack 40 ------- 1 3.1 1.0 38 113
r 4.26488 3 2 ack 40 ------- 1 3.1 1.0 38 113
+ 4.26488 2 1 ack 40 ------- 1 3.1 1.0 38 113
- 4.26488 2 1 ack 40 ------- 1 3.1 1.0 38 113
r 4.27504 2 1 ack 40 ------- 1 3.1 1.0 38 113
+ 4.27504 1 2 tcp 1040 ------- 1 1.0 3.1 58 114
- 4.27504 1 2 tcp 1040 ------- 1 1.0 3.1 58 114
r 4.2892 1 2 tcp 1040 ------- 1 1.0 3.1 58 114
+ 4.2892 2 3 tcp 1040 ------- 1 1.0 3.1 58 114
- 4.32488 2 3 tcp 1040 ------- 1 1.0 3.1 39 69
r 4.33488 2 3 tcp 1040 ------- 0 0.0 3.0 4 67
+ 4.33488 3 2 ack 40 ------- 0 3.0 0.0 4 115
- 4.33488 3 2 ack 40 ------- 0 3.0 0.0 4 115
r 4.34808 3 2 ack 40 ------- 0 3.0 0.0 4 115
+ 4.34808 2 0 ack 40 ------- 0 3.0 0.0 4 115
- 4.34808 2 0 ack 40 ------- 0 3.0 0.0 4 115
r 4.35824 2 0 ack 40 ------- 0 3.0 0.0 4 115
+ 4.35824 0 2 tcp 1040 ------- 0 0.0 3.0 6 116
- 4.35824 0 2 tcp 1040 ------- 0 0.0 3.0 6 116
r 4.3724 0 2 tcp 1040 ------- 0 0.0 3.0 6 116
+ 4.3724 2 3 tcp 1040 ------- 0 0.0 3.0 6 116
- 4.40808 2 3 tcp 1040 ------- 1 1.0 3.1 40 71
r 4.41808 2 3 tcp 1040 ------- 1 1.0 3.1 39 69
+ 4.41808 3 2 ack 40 ------- 1 3.1 1.0 39 117
- 4.41808 3 2 ack 40 ------- 1 3.1 1.0 39 117